/*--------------------------------*- C++ -*----------------------------------*\
| =========                 |                                                 |
| \\      /  F ield         | OpenFOAM: The Open Source CFD Toolbox           |
|  \\    /   O peration     | Version:  2306                                  |
|   \\  /    A nd           | Website:  www.openfoam.com                      |
|    \\/     M anipulation  |                                                 |
\*---------------------------------------------------------------------------*/
FoamFile
{
    version     2.0;
    format      ascii;
    arch        "LSB;label=32;scalar=64";
    class       volScalarField;
    location    "5238";
    object      p;
}
// * * * * * * * * * * * * * * * * * * * * * * * * * * * * * * * * * * * * * //

dimensions      [0 2 -2 0 0 0 0];

internalField   nonuniform List<scalar> 
100
(
-4.52142e-18
-1.00636e-17
-1.34535e-17
-1.7009e-17
-2.0957e-17
-2.50637e-17
-2.87167e-17
-3.24375e-17
-3.63861e-17
-4.06855e-17
-4.56434e-17
-5.03178e-17
-5.55817e-17
-6.19426e-17
-6.91846e-17
-7.7421e-17
-8.6377e-17
-9.54954e-17
-1.04712e-16
-1.13943e-16
-1.26598e-16
-1.3807e-16
-1.55846e-16
-1.6858e-16
-1.82223e-16
-1.96623e-16
-2.13731e-16
-2.33475e-16
-2.55725e-16
-2.68198e-16
-2.87628e-16
-3.09493e-16
-3.23865e-16
-3.35388e-16
-3.56281e-16
-3.79612e-16
-4.02891e-16
-4.15108e-16
-4.29994e-16
-4.52546e-16
-4.75428e-16
-4.99156e-16
-5.21404e-16
-5.55288e-16
-5.76146e-16
-5.89253e-16
-6.14568e-16
-6.41645e-16
-6.67351e-16
-6.79838e-16
-7.11197e-16
-7.233e-16
-7.2772e-16
-7.59882e-16
-7.90619e-16
-8.08816e-16
-8.22954e-16
-8.30432e-16
-8.48315e-16
-8.59437e-16
-8.78708e-16
-9.16996e-16
-9.4933e-16
-9.6568e-16
-9.8673e-16
-1.03693e-15
-1.07056e-15
-1.11768e-15
-1.15908e-15
-1.19854e-15
-1.21907e-15
-1.25339e-15
-1.29829e-15
-1.33432e-15
-1.39417e-15
-1.44117e-15
-1.47795e-15
-1.50316e-15
-1.54171e-15
-1.57882e-15
-1.61377e-15
-1.63494e-15
-1.68491e-15
-1.75385e-15
-1.78939e-15
-1.78805e-15
-1.82489e-15
-1.86246e-15
-1.89714e-15
-1.93048e-15
-1.96441e-15
-1.97815e-15
-1.99091e-15
-1.99313e-15
-2.00795e-15
-2.01345e-15
-2.01565e-15
-2.01362e-15
-2.0091e-15
-2.00682e-15
)
;

boundaryField
{
    inlet
    {
        type            cyclic;
    }
    outlet
    {
        type            cyclic;
    }
    channelCenter
    {
        type            symmetryPlane;
    }
    lowerWall
    {
        type            zeroGradient;
    }
    frontAndBack
    {
        type            empty;
    }
}


// ************************************************************************* //
