/*--------------------------------*- C++ -*----------------------------------*\
| =========                 |                                                 |
| \\      /  F ield         | OpenFOAM: The Open Source CFD Toolbox           |
|  \\    /   O peration     | Version:  2306                                  |
|   \\  /    A nd           | Website:  www.openfoam.com                      |
|    \\/     M anipulation  |                                                 |
\*---------------------------------------------------------------------------*/
FoamFile
{
    version     2.0;
    format      ascii;
    arch        "LSB;label=32;scalar=64";
    class       volVectorField;
    location    "5238";
    object      U;
}
// * * * * * * * * * * * * * * * * * * * * * * * * * * * * * * * * * * * * * //

dimensions      [0 1 -1 0 0 0 0];

internalField   nonuniform List<vector> 
100
(
(0.0358967 0 2.41746e-18)
(0.108348 0 1.14615e-16)
(0.182297 0 8.96472e-17)
(0.257734 0 8.92986e-17)
(0.334586 0 8.52543e-17)
(0.412599 0 7.86969e-17)
(0.490993 0 7.29292e-17)
(0.567786 0 6.90389e-17)
(0.639685 0 6.40616e-17)
(0.703881 0 6.04876e-17)
(0.759631 0 5.21008e-17)
(0.807689 0 4.39252e-17)
(0.849255 0 4.34753e-17)
(0.88549 0 4.5124e-17)
(0.917382 0 4.75133e-17)
(0.945732 0 4.62185e-17)
(0.971178 0 4.31173e-17)
(0.994226 0 4.04425e-17)
(1.01528 0 3.8621e-17)
(1.03466 0 4.1861e-17)
(1.05263 0 4.7856e-17)
(1.06939 0 5.52474e-17)
(1.08511 0 5.28407e-17)
(1.09994 0 4.64338e-17)
(1.11398 0 4.75993e-17)
(1.12734 0 5.03359e-17)
(1.1401 0 5.19718e-17)
(1.15232 0 4.72441e-17)
(1.16406 0 4.36291e-17)
(1.17537 0 4.10911e-17)
(1.1863 0 3.40601e-17)
(1.19688 0 2.72809e-17)
(1.20715 0 2.09869e-17)
(1.21712 0 2.81183e-17)
(1.22684 0 3.66046e-17)
(1.23631 0 3.26051e-17)
(1.24557 0 2.79767e-17)
(1.25462 0 2.43513e-17)
(1.26348 0 3.25101e-17)
(1.27217 0 4.30985e-17)
(1.2807 0 4.57031e-17)
(1.28908 0 4.9614e-17)
(1.29732 0 4.7903e-17)
(1.30544 0 3.26803e-17)
(1.31343 0 1.772e-17)
(1.3213 0 1.46061e-17)
(1.32907 0 2.19044e-17)
(1.33674 0 2.06712e-17)
(1.34431 0 3.43927e-18)
(1.3518 0 -1.06615e-17)
(1.3592 0 -2.45923e-17)
(1.36652 0 -3.95866e-17)
(1.37377 0 -2.9222e-17)
(1.38094 0 -1.82359e-17)
(1.38804 0 -2.94363e-17)
(1.39508 0 -3.98277e-17)
(1.40205 0 -5.81949e-17)
(1.40896 0 -6.02336e-17)
(1.41582 0 -5.02302e-17)
(1.42261 0 -4.01496e-17)
(1.42935 0 -2.17841e-17)
(1.43604 0 -8.41642e-18)
(1.44267 0 8.7545e-18)
(1.44925 0 1.68387e-17)
(1.45577 0 4.24753e-17)
(1.46224 0 8.04355e-17)
(1.46866 0 9.44866e-17)
(1.47503 0 9.84573e-17)
(1.48134 0 9.06717e-17)
(1.48759 0 8.41163e-17)
(1.49379 0 9.80447e-17)
(1.49992 0 1.02393e-16)
(1.506 0 1.02115e-16)
(1.512 0 1.20668e-16)
(1.51794 0 1.2113e-16)
(1.52381 0 9.82953e-17)
(1.52959 0 6.84324e-17)
(1.5353 0 5.71476e-17)
(1.54091 0 6.39525e-17)
(1.54642 0 6.60527e-17)
(1.55183 0 7.23204e-17)
(1.55712 0 9.50559e-17)
(1.56229 0 1.27888e-16)
(1.56732 0 1.14001e-16)
(1.57221 0 6.71532e-17)
(1.57693 0 5.64587e-17)
(1.58147 0 8.79477e-17)
(1.58581 0 1.11352e-16)
(1.58995 0 1.11342e-16)
(1.59385 0 1.09972e-16)
(1.59751 0 8.67946e-17)
(1.6009 0 6.4514e-17)
(1.604 0 5.66567e-17)
(1.60679 0 6.11499e-17)
(1.60925 0 6.76544e-17)
(1.61136 0 5.85716e-17)
(1.61309 0 4.32182e-17)
(1.61443 0 2.72913e-17)
(1.61535 0 1.71853e-17)
(1.61583 0 6.97057e-18)
)
;

boundaryField
{
    inlet
    {
        type            cyclic;
    }
    outlet
    {
        type            cyclic;
    }
    channelCenter
    {
        type            symmetryPlane;
    }
    lowerWall
    {
        type            noSlip;
    }
    frontAndBack
    {
        type            empty;
    }
}


// ************************************************************************* //
