/*--------------------------------*- C++ -*----------------------------------*\
| =========                 |                                                 |
| \\      /  F ield         | OpenFOAM: The Open Source CFD Toolbox           |
|  \\    /   O peration     | Version:  2306                                  |
|   \\  /    A nd           | Website:  www.openfoam.com                      |
|    \\/     M anipulation  |                                                 |
\*---------------------------------------------------------------------------*/
FoamFile
{
    version     2.0;
    format      ascii;
    arch        "LSB;label=32;scalar=64";
    class       volScalarField;
    location    "21771";
    object      nu;
}
// * * * * * * * * * * * * * * * * * * * * * * * * * * * * * * * * * * * * * //

dimensions      [0 2 -1 0 0 0 0];

internalField   nonuniform List<scalar> 
100
(
0.000150525
0.000150675
0.00015088
0.000151242
0.000151992
0.000153586
0.000156653
0.000161614
0.00016827
0.000175901
0.00018378
0.000191486
0.000198855
0.000205853
0.000212496
0.000218814
0.000224844
0.000230615
0.000236158
0.000241496
0.000246652
0.000251643
0.000256487
0.000261196
0.000265783
0.000270258
0.000274632
0.000278912
0.000283106
0.000287221
0.000291262
0.000295235
0.000299145
0.000302996
0.000306793
0.000310539
0.000314238
0.000317893
0.000321508
0.000325084
0.000328625
0.000332134
0.000335613
0.000339064
0.000342489
0.000345892
0.000349273
0.000352636
0.000355982
0.000359314
0.000362634
0.000365943
0.000369246
0.000372543
0.000375837
0.000379131
0.000382428
0.000385731
0.000389042
0.000392365
0.000395703
0.000399061
0.000402443
0.000405852
0.000409295
0.000412776
0.000416302
0.00041988
0.000423517
0.000427222
0.000431003
0.000434872
0.000438841
0.000442923
0.000447134
0.000451491
0.000456014
0.000460727
0.000465655
0.000470831
0.000476288
0.00048207
0.000488226
0.000494813
0.0005019
0.000509571
0.000517926
0.000527091
0.000537221
0.000548514
0.00056123
0.000575719
0.000592468
0.000612189
0.000635976
0.000665648
0.000704538
0.00075972
0.000852392
0.001
)
;

boundaryField
{
    inlet
    {
        type            cyclic;
    }
    outlet
    {
        type            cyclic;
    }
    channelCenter
    {
        type            symmetryPlane;
    }
    lowerWall
    {
        type            calculated;
        value           uniform 0.000150455;
    }
    frontAndBack
    {
        type            empty;
    }
}


// ************************************************************************* //
