/*--------------------------------*- C++ -*----------------------------------*\
| =========                 |                                                 |
| \\      /  F ield         | OpenFOAM: The Open Source CFD Toolbox           |
|  \\    /   O peration     | Version:  2306                                  |
|   \\  /    A nd           | Website:  www.openfoam.com                      |
|    \\/     M anipulation  |                                                 |
\*---------------------------------------------------------------------------*/
FoamFile
{
    version     2.0;
    format      ascii;
    arch        "LSB;label=32;scalar=64";
    class       volScalarField;
    location    "4685";
    object      k;
}
// * * * * * * * * * * * * * * * * * * * * * * * * * * * * * * * * * * * * * //

dimensions      [0 2 -2 0 0 0 0];

internalField   nonuniform List<scalar> 
2800
(
0.0342874
0.0333221
0.0324859
0.0317303
0.0310641
0.0304964
0.0300345
0.0296835
0.0294475
0.0293288
0.0293288
0.0294475
0.0296835
0.0300345
0.0304964
0.0310641
0.0317303
0.0324859
0.0333222
0.0342874
0.0333152
0.0321565
0.0311132
0.030177
0.0293507
0.0286437
0.028066
0.0276258
0.027329
0.0271797
0.0271797
0.027329
0.0276258
0.028066
0.0286438
0.0293507
0.030177
0.0311132
0.0321565
0.0333153
0.0324791
0.0311101
0.0298616
0.0287423
0.0277581
0.0269178
0.0262317
0.0257089
0.0253566
0.0251793
0.0251793
0.0253566
0.0257089
0.0262317
0.0269178
0.0277581
0.0287423
0.0298616
0.0311101
0.0324791
0.0317247
0.030173
0.0287406
0.0274508
0.0263181
0.0253541
0.0245693
0.0239729
0.0235718
0.0233702
0.0233702
0.0235718
0.0239729
0.0245693
0.0253541
0.0263181
0.0274508
0.0287406
0.030173
0.0317247
0.0310596
0.0293469
0.0277557
0.0263171
0.0250534
0.0239806
0.0231104
0.0224519
0.0220104
0.021789
0.021789
0.0220104
0.0224519
0.0231105
0.0239806
0.0250534
0.0263171
0.0277557
0.0293469
0.0310596
0.0304931
0.0286405
0.0269153
0.0253525
0.0239799
0.0228174
0.0218785
0.0211713
0.0206996
0.0204638
0.0204638
0.0206996
0.0211713
0.0218785
0.0228174
0.0239799
0.0253525
0.0269153
0.0286405
0.0304931
0.0300321
0.0280634
0.0262294
0.0245676
0.0231094
0.0218781
0.0208883
0.0201473
0.0196558
0.0194114
0.0194114
0.0196558
0.0201473
0.0208883
0.0218781
0.0231094
0.0245676
0.0262294
0.0280634
0.0300321
0.0296819
0.0276237
0.0257069
0.0239713
0.0224507
0.0211707
0.020147
0.0193856
0.0188844
0.0186365
0.0186365
0.0188844
0.0193856
0.020147
0.0211707
0.0224507
0.0239713
0.0257069
0.0276237
0.0296819
0.0294463
0.0273273
0.0253548
0.0235702
0.0220092
0.0206988
0.0196554
0.0188842
0.0183801
0.0181325
0.0181325
0.0183801
0.0188842
0.0196554
0.0206988
0.0220092
0.0235702
0.0253548
0.0273273
0.0294463
0.0293279
0.0271782
0.0251777
0.0233687
0.0217878
0.020463
0.0194109
0.0186363
0.0181324
0.017886
0.017886
0.0181324
0.0186363
0.0194109
0.020463
0.0217878
0.0233687
0.0251777
0.0271782
0.0293279
0.0293279
0.0271782
0.0251777
0.0233687
0.0217878
0.020463
0.0194109
0.0186363
0.0181324
0.017886
0.017886
0.0181324
0.0186363
0.0194109
0.020463
0.0217878
0.0233687
0.0251777
0.0271782
0.0293279
0.0294463
0.0273273
0.0253548
0.0235702
0.0220092
0.0206988
0.0196554
0.0188842
0.0183801
0.0181325
0.0181325
0.0183801
0.0188842
0.0196554
0.0206988
0.0220092
0.0235702
0.0253548
0.0273273
0.0294463
0.0296819
0.0276237
0.0257069
0.0239713
0.0224507
0.0211707
0.020147
0.0193856
0.0188844
0.0186365
0.0186365
0.0188844
0.0193856
0.020147
0.0211707
0.0224507
0.0239713
0.0257069
0.0276237
0.0296819
0.0300321
0.0280634
0.0262294
0.0245676
0.0231094
0.0218781
0.0208883
0.0201473
0.0196558
0.0194114
0.0194114
0.0196558
0.0201473
0.0208883
0.0218781
0.0231094
0.0245676
0.0262294
0.0280634
0.0300321
0.0304931
0.0286405
0.0269153
0.0253525
0.0239799
0.0228174
0.0218785
0.0211713
0.0206996
0.0204638
0.0204638
0.0206995
0.0211713
0.0218785
0.0228174
0.0239799
0.0253525
0.0269153
0.0286405
0.0304931
0.0310596
0.0293469
0.0277557
0.0263171
0.0250534
0.0239806
0.0231104
0.0224518
0.0220104
0.021789
0.021789
0.0220104
0.0224518
0.0231104
0.0239806
0.0250534
0.0263171
0.0277557
0.0293469
0.0310596
0.0317247
0.030173
0.0287406
0.0274508
0.0263181
0.0253541
0.0245693
0.0239729
0.0235718
0.0233702
0.0233702
0.0235718
0.0239729
0.0245693
0.0253541
0.0263181
0.0274508
0.0287406
0.030173
0.0317247
0.0324791
0.0311101
0.0298616
0.0287423
0.0277581
0.0269178
0.0262317
0.0257089
0.0253566
0.0251793
0.0251793
0.0253566
0.0257089
0.0262317
0.0269178
0.0277581
0.0287423
0.0298616
0.0311101
0.0324791
0.0333153
0.0321565
0.0311132
0.030177
0.0293507
0.0286437
0.028066
0.0276258
0.027329
0.0271797
0.0271797
0.027329
0.0276258
0.028066
0.0286437
0.0293507
0.030177
0.0311132
0.0321565
0.0333152
0.0342874
0.0333222
0.0324859
0.0317303
0.0310641
0.0304964
0.0300345
0.0296835
0.0294475
0.0293288
0.0293288
0.0294475
0.0296835
0.0300345
0.0304964
0.0310641
0.0317303
0.0324859
0.0333222
0.0342874
0.0354758
0.037187
0.0387549
0.0401487
0.0413578
0.0423787
0.0432091
0.043846
0.0442838
0.0445133
0.0445204
0.0442855
0.043781
0.0429706
0.0418065
0.0402276
0.038158
0.0355071
0.0321771
0.0280846
0.0232144
0.0177287
0.0121107
0.00716311
0.00359222
0.00150572
0.000507245
0.000122775
1.61014e-05
5.51733e-07
0.0346592
0.0364808
0.0381158
0.0395703
0.040841
0.041925
0.0428204
0.0435241
0.0440313
0.0443336
0.0444185
0.0442676
0.0438555
0.0431478
0.042099
0.0406501
0.0387265
0.0362372
0.0330792
0.0291545
0.024416
0.0189679
0.0132248
0.00798101
0.00406119
0.00171485
0.000579175
0.000140265
1.83959e-05
6.30354e-07
0.0339695
0.0358488
0.0375473
0.0390615
0.04039
0.0415316
0.042485
0.0432482
0.0438169
0.0441837
0.044337
0.0442597
0.0439279
0.0433088
0.0423586
0.0410204
0.0392209
0.0368694
0.0338599
0.0300841
0.0254703
0.0200755
0.0142492
0.00875911
0.00452031
0.00192282
0.000651085
0.000157764
2.06907e-05
7.08946e-07
0.0333697
0.035291
0.03704
0.0386061
0.0399863
0.0411793
0.0421844
0.0430001
0.0436228
0.0440456
0.044258
0.0442439
0.0439803
0.0434361
0.0425693
0.0413244
0.0396298
0.0373954
0.0345136
0.0308689
0.026371
0.0210387
0.0151635
0.00947604
0.00495543
0.00212317
0.000720793
0.000174753
2.29192e-05
7.8526e-07
0.0328504
0.0348071
0.0365968
0.0382061
0.0396302
0.0408676
0.0419175
0.0427785
0.0434474
0.0439181
0.0441807
0.0442197
0.0440135
0.043532
0.0427346
0.0415674
0.0399603
0.0378241
0.0350502
0.0315182
0.0271239
0.0218561
0.0159565
0.0101152
0.00535349
0.00230935
0.000785966
0.000190661
2.50063e-05
8.56729e-07
0.0324116
0.0343981
0.0362208
0.0378654
0.039326
0.0406003
0.0416875
0.0425863
0.0432939
0.0438044
0.0441083
0.0441911
0.044032
0.0436017
0.0428609
0.0417571
0.0402214
0.0381654
0.0354803
0.0320422
0.0277368
0.0225296
0.0166216
0.010664
0.00570301
0.0024752
0.000844352
0.000204932
2.68791e-05
9.20857e-07
0.0320558
0.0340662
0.0359152
0.0375878
0.0390774
0.0403812
0.0414984
0.0424275
0.043166
0.0437082
0.0440451
0.0441626
0.0440406
0.0436508
0.0429546
0.0419006
0.0404209
0.0384281
0.0358132
0.0324501
0.0282171
0.0230625
0.0171553
0.0111127
0.00599432
0.00261515
0.000893872
0.000217052
2.84699e-05
9.75326e-07
0.031786
0.0338143
0.0356829
0.0373765
0.0388878
0.0402139
0.0413535
0.0423055
0.043067
0.043633
0.0439945
0.044138
0.0440436
0.0436837
0.0430205
0.0420033
0.0405651
0.0386191
0.0360563
0.0327493
0.0285714
0.0234583
0.017556
0.0114545
0.00621961
0.00272449
0.000932725
0.000226571
2.97195e-05
1.01811e-06
0.0316046
0.0336448
0.0355265
0.0372341
0.0387599
0.0401008
0.0412555
0.0422227
0.0429997
0.0435814
0.0439593
0.0441199
0.0440438
0.0437038
0.0430624
0.0420695
0.0406587
0.0387436
0.0362154
0.0329457
0.0288047
0.0237203
0.0178232
0.0116848
0.00637304
0.00279951
0.000959469
0.000233128
3.05804e-05
1.04759e-06
0.0315135
0.0335596
0.0354479
0.0371624
0.0386955
0.0400439
0.0412061
0.0421808
0.0429656
0.0435552
0.0439413
0.0441104
0.0440435
0.0437133
0.0430827
0.042102
0.0407047
0.038805
0.036294
0.0330429
0.0289204
0.0238508
0.0179568
0.0118006
0.00645072
0.00283768
0.000973098
0.000236472
3.10194e-05
1.06262e-06
0.0315135
0.0335596
0.0354479
0.0371624
0.0386955
0.0400439
0.0412061
0.0421808
0.0429656
0.0435552
0.0439413
0.0441104
0.0440435
0.0437133
0.0430827
0.042102
0.0407047
0.038805
0.036294
0.0330429
0.0289204
0.0238508
0.0179568
0.0118006
0.00645072
0.00283768
0.000973098
0.000236472
3.10194e-05
1.06262e-06
0.0316046
0.0336448
0.0355265
0.0372341
0.0387599
0.0401008
0.0412555
0.0422227
0.0429997
0.0435814
0.0439593
0.0441199
0.0440438
0.0437038
0.0430624
0.0420695
0.0406587
0.0387436
0.0362154
0.0329457
0.0288047
0.0237203
0.0178232
0.0116848
0.00637304
0.00279951
0.000959469
0.000233128
3.05804e-05
1.04759e-06
0.031786
0.0338143
0.0356829
0.0373765
0.0388878
0.0402139
0.0413535
0.0423055
0.043067
0.043633
0.0439945
0.044138
0.0440436
0.0436837
0.0430205
0.0420033
0.0405651
0.0386191
0.0360563
0.0327493
0.0285714
0.0234583
0.017556
0.0114545
0.00621961
0.00272449
0.000932725
0.000226571
2.97195e-05
1.01811e-06
0.0320558
0.0340662
0.0359152
0.0375878
0.0390774
0.0403812
0.0414984
0.0424275
0.043166
0.0437082
0.0440451
0.0441626
0.0440406
0.0436508
0.0429546
0.0419006
0.0404209
0.0384281
0.0358132
0.0324501
0.0282171
0.0230625
0.0171553
0.0111127
0.00599432
0.00261515
0.000893872
0.000217052
2.84699e-05
9.75326e-07
0.0324116
0.0343981
0.0362208
0.0378654
0.039326
0.0406003
0.0416875
0.0425863
0.0432939
0.0438044
0.0441083
0.0441911
0.044032
0.0436017
0.0428609
0.0417571
0.0402214
0.0381654
0.0354803
0.0320422
0.0277368
0.0225296
0.0166216
0.010664
0.00570301
0.0024752
0.000844352
0.000204932
2.68791e-05
9.20857e-07
0.0328504
0.0348071
0.0365968
0.0382061
0.0396302
0.0408676
0.0419175
0.0427785
0.0434474
0.0439181
0.0441806
0.0442197
0.0440135
0.043532
0.0427346
0.0415674
0.0399603
0.0378241
0.0350502
0.0315182
0.0271239
0.0218561
0.0159565
0.0101152
0.00535348
0.00230935
0.000785966
0.000190661
2.50063e-05
8.56729e-07
0.0333697
0.035291
0.03704
0.0386061
0.0399863
0.0411793
0.0421844
0.0430001
0.0436228
0.0440456
0.044258
0.0442439
0.0439803
0.0434361
0.0425693
0.0413244
0.0396298
0.0373954
0.0345136
0.0308689
0.026371
0.0210387
0.0151635
0.00947604
0.00495543
0.00212317
0.000720793
0.000174753
2.29192e-05
7.8526e-07
0.0339695
0.0358488
0.0375473
0.0390615
0.04039
0.0415316
0.042485
0.0432482
0.0438169
0.0441837
0.044337
0.0442597
0.0439279
0.0433088
0.0423586
0.0410204
0.0392209
0.0368694
0.0338599
0.0300841
0.0254703
0.0200755
0.0142492
0.00875911
0.00452031
0.00192282
0.000651085
0.000157764
2.06907e-05
7.08946e-07
0.0346592
0.0364808
0.0381158
0.0395703
0.040841
0.041925
0.0428204
0.0435241
0.0440313
0.0443336
0.0444185
0.0442676
0.0438555
0.0431478
0.042099
0.0406501
0.0387265
0.0362372
0.0330792
0.0291545
0.024416
0.0189679
0.0132248
0.00798101
0.00406119
0.00171485
0.000579175
0.000140265
1.83959e-05
6.30354e-07
0.0354758
0.037187
0.0387549
0.0401487
0.0413578
0.0423787
0.0432091
0.043846
0.0442838
0.0445132
0.0445204
0.0442855
0.043781
0.0429706
0.0418065
0.0402276
0.038158
0.0355071
0.0321771
0.0280846
0.0232144
0.0177286
0.0121107
0.00716311
0.00359222
0.00150572
0.000507245
0.000122775
1.61014e-05
5.51733e-07
0.0354939
0.0372105
0.0387822
0.040179
0.0413905
0.0424129
0.0432443
0.0438814
0.0443189
0.0445475
0.0445534
0.044317
0.0438111
0.0429993
0.0418341
0.0402544
0.0381842
0.0355331
0.032203
0.0281101
0.0232389
0.0177509
0.012129
0.00717601
0.00359966
0.00150918
0.000508514
0.000123106
1.61481e-05
5.53379e-07
0.034662
0.0364865
0.0381227
0.039578
0.0408489
0.0419328
0.0428276
0.0435307
0.0440372
0.0443388
0.0444232
0.0442719
0.0438595
0.0431517
0.0421027
0.0406536
0.0387295
0.0362394
0.0330804
0.0291543
0.0244141
0.0189646
0.013221
0.00797783
0.00405931
0.00171404
0.000578921
0.000140212
1.83905e-05
6.30162e-07
0.0339699
0.0358488
0.0375472
0.0390615
0.04039
0.0415316
0.0424851
0.0432484
0.0438172
0.0441841
0.0443376
0.0442605
0.0439286
0.0433093
0.0423588
0.0410199
0.0392193
0.0368664
0.0338551
0.0300772
0.0254613
0.0200651
0.0142388
0.00875084
0.00451532
0.00192056
0.00065032
0.000157585
2.06683e-05
7.08167e-07
0.0333695
0.0352894
0.0370378
0.0386038
0.0399841
0.0411774
0.0421829
0.042999
0.043622
0.0440452
0.0442578
0.0442437
0.0439801
0.0434356
0.0425681
0.0413223
0.0396265
0.0373905
0.0345069
0.0308601
0.0263601
0.0210264
0.0151512
0.00946604
0.00494924
0.00212031
0.000719807
0.000174518
2.28891e-05
7.84214e-07
0.0328501
0.0348053
0.0365943
0.0382035
0.0396278
0.0408656
0.0419158
0.0427773
0.0434466
0.0439177
0.0441803
0.0442193
0.0440129
0.0435311
0.042733
0.041565
0.0399568
0.0378192
0.0350437
0.0315098
0.0271137
0.0218445
0.0159448
0.0101055
0.00534733
0.00230646
0.000784957
0.000190418
2.49749e-05
8.55637e-07
0.0324114
0.0343965
0.0362186
0.0378631
0.0393238
0.0405985
0.0416861
0.0425853
0.0432932
0.0438039
0.044108
0.0441908
0.0440314
0.0436009
0.0428596
0.0417551
0.0402184
0.0381614
0.0354749
0.0320354
0.0277285
0.0225201
0.0166119
0.0106558
0.00569769
0.00247265
0.000843457
0.000204715
2.68509e-05
9.19872e-07
0.0320559
0.034065
0.0359134
0.0375859
0.0390756
0.0403797
0.0414972
0.0424267
0.0431654
0.0437078
0.0440448
0.0441624
0.0440402
0.0436502
0.0429536
0.0418991
0.0404188
0.0384252
0.0358093
0.0324451
0.0282111
0.0230555
0.0171481
0.0111065
0.00599021
0.00261316
0.000893166
0.00021688
2.84473e-05
9.74534e-07
0.0317863
0.0338134
0.0356815
0.0373749
0.0388863
0.0402126
0.0413525
0.0423047
0.0430665
0.0436327
0.0439943
0.0441378
0.0440433
0.0436833
0.0430199
0.0420024
0.0405638
0.0386173
0.0360539
0.0327462
0.0285675
0.0234538
0.0175512
0.0114503
0.00621674
0.00272308
0.000932222
0.000226447
2.97032e-05
1.01753e-06
0.0316051
0.0336442
0.0355254
0.0372327
0.0387586
0.0400996
0.0412545
0.0422219
0.0429992
0.0435811
0.0439591
0.0441198
0.0440437
0.0437036
0.0430622
0.0420691
0.0406581
0.0387426
0.036214
0.0329438
0.0288023
0.0237175
0.0178202
0.0116821
0.00637117
0.00279858
0.000959133
0.000233045
3.05693e-05
1.04719e-06
0.0315141
0.0335591
0.0354468
0.0371611
0.0386942
0.0400427
0.0412051
0.0421801
0.042965
0.0435549
0.0439411
0.0441104
0.0440434
0.0437133
0.0430827
0.0421018
0.0407044
0.0388045
0.0362932
0.0330418
0.0289189
0.0238489
0.0179547
0.0117987
0.0064494
0.00283701
0.000972856
0.000236412
3.10112e-05
1.06232e-06
0.0315141
0.0335591
0.0354468
0.0371611
0.0386942
0.0400427
0.0412051
0.0421801
0.042965
0.0435549
0.0439411
0.0441104
0.0440434
0.0437133
0.0430827
0.0421018
0.0407044
0.0388045
0.0362932
0.0330418
0.0289189
0.0238489
0.0179547
0.0117987
0.0064494
0.00283701
0.000972856
0.000236412
3.10112e-05
1.06232e-06
0.0316051
0.0336442
0.0355254
0.0372327
0.0387586
0.0400996
0.0412545
0.0422219
0.0429992
0.0435811
0.0439591
0.0441198
0.0440437
0.0437036
0.0430622
0.0420691
0.0406581
0.0387426
0.036214
0.0329438
0.0288023
0.0237175
0.0178202
0.0116821
0.00637117
0.00279858
0.000959133
0.000233045
3.05693e-05
1.04719e-06
0.0317863
0.0338134
0.0356815
0.0373749
0.0388863
0.0402126
0.0413525
0.0423047
0.0430665
0.0436327
0.0439943
0.0441378
0.0440433
0.0436833
0.0430199
0.0420024
0.0405638
0.0386173
0.0360539
0.0327462
0.0285675
0.0234538
0.0175512
0.0114503
0.00621674
0.00272308
0.000932222
0.000226447
2.97032e-05
1.01753e-06
0.0320559
0.034065
0.0359134
0.0375859
0.0390756
0.0403797
0.0414972
0.0424267
0.0431654
0.0437078
0.0440448
0.0441624
0.0440402
0.0436502
0.0429536
0.0418991
0.0404188
0.0384252
0.0358093
0.0324451
0.0282111
0.0230555
0.0171481
0.0111065
0.00599021
0.00261316
0.000893166
0.00021688
2.84473e-05
9.74534e-07
0.0324115
0.0343965
0.0362186
0.0378631
0.0393238
0.0405985
0.0416861
0.0425853
0.0432932
0.0438039
0.044108
0.0441908
0.0440314
0.0436009
0.0428596
0.0417551
0.0402184
0.0381614
0.0354749
0.0320354
0.0277285
0.0225201
0.0166119
0.0106558
0.00569769
0.00247265
0.000843457
0.000204715
2.68509e-05
9.19872e-07
0.0328501
0.0348053
0.0365943
0.0382035
0.0396278
0.0408656
0.0419158
0.0427773
0.0434466
0.0439177
0.0441803
0.0442193
0.0440129
0.0435311
0.042733
0.041565
0.0399568
0.0378192
0.0350437
0.0315098
0.0271137
0.0218445
0.0159448
0.0101055
0.00534733
0.00230646
0.000784957
0.000190418
2.49749e-05
8.55637e-07
0.0333695
0.0352894
0.0370378
0.0386038
0.0399841
0.0411774
0.0421829
0.042999
0.043622
0.0440452
0.0442578
0.0442437
0.0439801
0.0434356
0.0425681
0.0413223
0.0396265
0.0373905
0.0345069
0.0308601
0.0263601
0.0210264
0.0151512
0.00946604
0.00494924
0.00212031
0.000719807
0.000174518
2.28891e-05
7.84214e-07
0.0339699
0.0358488
0.0375472
0.0390615
0.04039
0.0415316
0.0424851
0.0432484
0.0438172
0.0441841
0.0443376
0.0442605
0.0439286
0.0433093
0.0423588
0.0410199
0.0392193
0.0368664
0.0338551
0.0300772
0.0254613
0.0200651
0.0142388
0.00875084
0.00451532
0.00192056
0.00065032
0.000157585
2.06683e-05
7.08167e-07
0.034662
0.0364865
0.0381227
0.039578
0.0408489
0.0419328
0.0428276
0.0435307
0.0440372
0.0443388
0.0444232
0.0442719
0.0438595
0.0431517
0.0421027
0.0406536
0.0387295
0.0362394
0.0330804
0.0291543
0.0244141
0.0189646
0.013221
0.00797783
0.00405931
0.00171404
0.000578921
0.000140212
1.83905e-05
6.30162e-07
0.0354939
0.0372105
0.0387822
0.040179
0.0413905
0.0424129
0.0432443
0.0438814
0.0443189
0.0445475
0.0445534
0.044317
0.0438111
0.0429993
0.0418341
0.0402544
0.0381842
0.0355331
0.032203
0.0281101
0.0232389
0.0177509
0.012129
0.00717601
0.00359966
0.00150918
0.000508514
0.000123106
1.61481e-05
5.53379e-07
0.0354758
0.037187
0.0387549
0.0401487
0.0413578
0.0423787
0.0432091
0.043846
0.0442838
0.0445133
0.0445204
0.0442855
0.043781
0.0429706
0.0418065
0.0402276
0.038158
0.0355071
0.0321771
0.0280846
0.0232144
0.0177286
0.0121107
0.00716311
0.00359222
0.00150572
0.000507245
0.000122775
1.61014e-05
5.51733e-07
0.0346592
0.0364808
0.0381158
0.0395703
0.040841
0.041925
0.0428204
0.0435241
0.0440313
0.0443336
0.0444185
0.0442676
0.0438555
0.0431478
0.042099
0.0406501
0.0387265
0.0362372
0.0330792
0.0291545
0.024416
0.0189679
0.0132248
0.00798101
0.00406119
0.00171485
0.000579175
0.000140265
1.83959e-05
6.30354e-07
0.0339695
0.0358488
0.0375473
0.0390615
0.04039
0.0415316
0.042485
0.0432482
0.0438169
0.0441837
0.044337
0.0442597
0.0439279
0.0433088
0.0423586
0.0410204
0.0392209
0.0368694
0.0338599
0.0300841
0.0254703
0.0200755
0.0142492
0.00875911
0.00452031
0.00192282
0.000651085
0.000157764
2.06907e-05
7.08946e-07
0.0333697
0.035291
0.03704
0.0386061
0.0399863
0.0411793
0.0421844
0.0430001
0.0436228
0.0440456
0.044258
0.0442439
0.0439803
0.0434361
0.0425693
0.0413244
0.0396298
0.0373954
0.0345136
0.0308689
0.026371
0.0210387
0.0151635
0.00947604
0.00495543
0.00212317
0.000720793
0.000174753
2.29192e-05
7.8526e-07
0.0328504
0.0348071
0.0365968
0.0382061
0.0396302
0.0408676
0.0419175
0.0427785
0.0434474
0.0439181
0.0441807
0.0442197
0.0440135
0.043532
0.0427346
0.0415674
0.0399603
0.0378241
0.0350502
0.0315182
0.0271239
0.0218561
0.0159565
0.0101152
0.00535348
0.00230935
0.000785966
0.000190661
2.50063e-05
8.56729e-07
0.0324116
0.0343981
0.0362208
0.0378654
0.039326
0.0406003
0.0416875
0.0425863
0.0432939
0.0438044
0.0441083
0.0441911
0.044032
0.0436017
0.0428609
0.0417571
0.0402214
0.0381654
0.0354803
0.0320422
0.0277368
0.0225296
0.0166216
0.010664
0.00570301
0.0024752
0.000844352
0.000204932
2.68791e-05
9.20857e-07
0.0320558
0.0340662
0.0359152
0.0375878
0.0390774
0.0403812
0.0414984
0.0424275
0.043166
0.0437082
0.0440451
0.0441626
0.0440406
0.0436508
0.0429546
0.0419006
0.0404209
0.0384281
0.0358132
0.0324501
0.0282171
0.0230625
0.0171553
0.0111127
0.00599432
0.00261515
0.000893872
0.000217052
2.84699e-05
9.75326e-07
0.031786
0.0338143
0.0356829
0.0373765
0.0388878
0.0402139
0.0413535
0.0423055
0.043067
0.043633
0.0439945
0.044138
0.0440436
0.0436837
0.0430205
0.0420033
0.0405651
0.0386191
0.0360563
0.0327493
0.0285714
0.0234583
0.017556
0.0114545
0.00621961
0.00272449
0.000932725
0.000226571
2.97195e-05
1.01811e-06
0.0316046
0.0336448
0.0355266
0.0372341
0.0387599
0.0401008
0.0412555
0.0422227
0.0429997
0.0435814
0.0439593
0.0441199
0.0440438
0.0437038
0.0430624
0.0420695
0.0406587
0.0387436
0.0362154
0.0329457
0.0288047
0.0237203
0.0178232
0.0116848
0.00637304
0.00279951
0.000959469
0.000233128
3.05804e-05
1.04759e-06
0.0315135
0.0335596
0.0354479
0.0371624
0.0386955
0.0400439
0.0412061
0.0421808
0.0429656
0.0435552
0.0439413
0.0441104
0.0440435
0.0437133
0.0430827
0.042102
0.0407047
0.038805
0.036294
0.0330429
0.0289204
0.0238508
0.0179568
0.0118006
0.00645072
0.00283768
0.000973098
0.000236472
3.10194e-05
1.06262e-06
0.0315135
0.0335596
0.0354479
0.0371624
0.0386955
0.0400439
0.0412061
0.0421808
0.0429656
0.0435552
0.0439413
0.0441104
0.0440435
0.0437133
0.0430827
0.042102
0.0407047
0.038805
0.036294
0.0330429
0.0289204
0.0238508
0.0179568
0.0118006
0.00645072
0.00283768
0.000973098
0.000236472
3.10194e-05
1.06262e-06
0.0316046
0.0336448
0.0355266
0.0372341
0.0387599
0.0401008
0.0412555
0.0422227
0.0429997
0.0435814
0.0439593
0.0441199
0.0440438
0.0437038
0.0430624
0.0420695
0.0406587
0.0387436
0.0362154
0.0329457
0.0288047
0.0237203
0.0178232
0.0116848
0.00637304
0.00279951
0.000959469
0.000233128
3.05804e-05
1.04759e-06
0.031786
0.0338143
0.0356829
0.0373765
0.0388878
0.0402139
0.0413535
0.0423055
0.043067
0.043633
0.0439945
0.044138
0.0440436
0.0436837
0.0430205
0.0420033
0.0405651
0.0386191
0.0360563
0.0327493
0.0285714
0.0234583
0.017556
0.0114545
0.00621961
0.00272449
0.000932725
0.000226571
2.97195e-05
1.01811e-06
0.0320558
0.0340662
0.0359152
0.0375878
0.0390774
0.0403812
0.0414984
0.0424275
0.043166
0.0437082
0.0440451
0.0441626
0.0440406
0.0436508
0.0429546
0.0419006
0.0404209
0.0384281
0.0358132
0.0324501
0.0282171
0.0230625
0.0171553
0.0111127
0.00599432
0.00261515
0.000893872
0.000217052
2.84699e-05
9.75326e-07
0.0324116
0.0343981
0.0362208
0.0378654
0.039326
0.0406003
0.0416875
0.0425863
0.0432939
0.0438044
0.0441083
0.0441911
0.044032
0.0436017
0.0428609
0.0417571
0.0402214
0.0381654
0.0354803
0.0320422
0.0277368
0.0225296
0.0166216
0.010664
0.00570301
0.0024752
0.000844351
0.000204932
2.68791e-05
9.20857e-07
0.0328504
0.0348071
0.0365968
0.0382061
0.0396303
0.0408676
0.0419175
0.0427785
0.0434474
0.0439182
0.0441807
0.0442197
0.0440135
0.043532
0.0427346
0.0415674
0.0399603
0.0378241
0.0350502
0.0315182
0.0271239
0.0218561
0.0159565
0.0101152
0.00535348
0.00230935
0.000785966
0.000190661
2.50063e-05
8.56729e-07
0.0333697
0.035291
0.03704
0.0386061
0.0399863
0.0411793
0.0421844
0.0430001
0.0436228
0.0440456
0.044258
0.0442439
0.0439803
0.0434361
0.0425693
0.0413244
0.0396298
0.0373954
0.0345136
0.0308689
0.026371
0.0210387
0.0151635
0.00947604
0.00495543
0.00212317
0.000720793
0.000174753
2.29192e-05
7.8526e-07
0.0339695
0.0358488
0.0375473
0.0390615
0.04039
0.0415316
0.042485
0.0432482
0.0438169
0.0441837
0.044337
0.0442597
0.0439279
0.0433088
0.0423586
0.0410204
0.0392209
0.0368694
0.0338599
0.0300841
0.0254703
0.0200755
0.0142492
0.00875911
0.00452031
0.00192282
0.000651085
0.000157764
2.06907e-05
7.08946e-07
0.0346592
0.0364808
0.0381158
0.0395703
0.040841
0.041925
0.0428204
0.0435241
0.0440313
0.0443336
0.0444185
0.0442676
0.0438555
0.0431478
0.042099
0.0406501
0.0387265
0.0362371
0.0330792
0.0291545
0.024416
0.0189679
0.0132248
0.00798101
0.00406119
0.00171485
0.000579175
0.000140265
1.83959e-05
6.30353e-07
0.0354759
0.0371869
0.0387549
0.0401487
0.0413578
0.0423786
0.0432091
0.043846
0.0442838
0.0445132
0.0445204
0.0442854
0.043781
0.0429706
0.0418065
0.0402276
0.0381579
0.0355071
0.0321771
0.0280845
0.0232144
0.0177286
0.0121107
0.0071631
0.00359221
0.00150572
0.000507245
0.000122775
1.61014e-05
5.51733e-07
0.0354939
0.0372105
0.0387822
0.040179
0.0413905
0.0424129
0.0432443
0.0438814
0.0443188
0.0445475
0.0445534
0.044317
0.0438111
0.0429993
0.0418341
0.0402544
0.0381842
0.0355331
0.032203
0.0281101
0.0232389
0.0177509
0.012129
0.007176
0.00359966
0.00150918
0.000508514
0.000123106
1.61481e-05
5.53379e-07
0.0346619
0.0364865
0.0381227
0.039578
0.0408489
0.0419328
0.0428276
0.0435307
0.0440372
0.0443388
0.0444232
0.0442719
0.0438595
0.0431517
0.0421027
0.0406536
0.0387295
0.0362394
0.0330804
0.0291543
0.0244141
0.0189646
0.013221
0.00797783
0.00405931
0.00171404
0.000578921
0.000140212
1.83905e-05
6.30162e-07
0.0339699
0.0358488
0.0375472
0.0390615
0.04039
0.0415316
0.0424851
0.0432484
0.0438172
0.0441841
0.0443376
0.0442605
0.0439286
0.0433093
0.0423588
0.0410199
0.0392193
0.0368664
0.0338551
0.0300772
0.0254613
0.0200651
0.0142388
0.00875084
0.00451532
0.00192056
0.00065032
0.000157585
2.06683e-05
7.08167e-07
0.0333695
0.0352894
0.0370378
0.0386038
0.0399841
0.0411774
0.0421829
0.042999
0.043622
0.0440452
0.0442578
0.0442437
0.0439801
0.0434356
0.0425681
0.0413223
0.0396265
0.0373905
0.0345069
0.03086
0.0263601
0.0210264
0.0151512
0.00946604
0.00494924
0.00212031
0.000719806
0.000174518
2.28891e-05
7.84214e-07
0.0328501
0.0348053
0.0365943
0.0382035
0.0396278
0.0408656
0.0419159
0.0427773
0.0434466
0.0439177
0.0441803
0.0442193
0.044013
0.0435311
0.042733
0.041565
0.0399568
0.0378192
0.0350437
0.0315098
0.0271137
0.0218445
0.0159448
0.0101055
0.00534733
0.00230646
0.000784957
0.000190418
2.49749e-05
8.55637e-07
0.0324115
0.0343965
0.0362186
0.0378631
0.0393238
0.0405985
0.0416861
0.0425853
0.0432932
0.0438039
0.044108
0.0441908
0.0440314
0.0436009
0.0428596
0.0417551
0.0402184
0.0381614
0.0354749
0.0320354
0.0277285
0.0225201
0.0166119
0.0106558
0.00569769
0.00247265
0.000843457
0.000204715
2.68509e-05
9.19872e-07
0.0320559
0.034065
0.0359134
0.0375859
0.0390756
0.0403797
0.0414972
0.0424267
0.0431654
0.0437078
0.0440448
0.0441624
0.0440402
0.0436502
0.0429536
0.0418991
0.0404188
0.0384252
0.0358093
0.0324451
0.0282111
0.0230555
0.0171481
0.0111065
0.00599021
0.00261316
0.000893166
0.00021688
2.84473e-05
9.74534e-07
0.0317863
0.0338134
0.0356815
0.0373749
0.0388863
0.0402126
0.0413525
0.0423047
0.0430665
0.0436327
0.0439943
0.0441378
0.0440433
0.0436833
0.0430199
0.0420024
0.0405638
0.0386173
0.0360539
0.0327462
0.0285675
0.0234538
0.0175512
0.0114503
0.00621674
0.00272308
0.000932222
0.000226447
2.97032e-05
1.01753e-06
0.0316051
0.0336442
0.0355254
0.0372327
0.0387586
0.0400996
0.0412545
0.0422219
0.0429992
0.0435811
0.0439591
0.0441198
0.0440437
0.0437036
0.0430622
0.0420691
0.0406581
0.0387426
0.036214
0.0329438
0.0288023
0.0237175
0.0178202
0.0116821
0.00637117
0.00279858
0.000959133
0.000233045
3.05693e-05
1.04719e-06
0.0315141
0.0335591
0.0354468
0.0371611
0.0386942
0.0400427
0.0412051
0.0421801
0.042965
0.0435549
0.0439411
0.0441104
0.0440434
0.0437133
0.0430827
0.0421018
0.0407044
0.0388045
0.0362932
0.0330418
0.0289189
0.0238489
0.0179547
0.0117987
0.0064494
0.00283701
0.000972856
0.000236412
3.10112e-05
1.06232e-06
0.0315141
0.0335591
0.0354468
0.0371611
0.0386942
0.0400427
0.0412051
0.0421801
0.042965
0.0435549
0.0439411
0.0441104
0.0440434
0.0437133
0.0430827
0.0421018
0.0407044
0.0388045
0.0362932
0.0330418
0.0289189
0.0238489
0.0179547
0.0117987
0.0064494
0.00283701
0.000972856
0.000236412
3.10112e-05
1.06232e-06
0.0316051
0.0336442
0.0355254
0.0372327
0.0387586
0.0400996
0.0412545
0.0422219
0.0429992
0.0435811
0.0439591
0.0441198
0.0440437
0.0437036
0.0430622
0.0420691
0.0406581
0.0387426
0.036214
0.0329438
0.0288023
0.0237175
0.0178202
0.0116821
0.00637117
0.00279858
0.000959133
0.000233045
3.05693e-05
1.04719e-06
0.0317863
0.0338134
0.0356815
0.0373749
0.0388863
0.0402126
0.0413525
0.0423047
0.0430665
0.0436327
0.0439943
0.0441378
0.0440433
0.0436833
0.0430199
0.0420024
0.0405638
0.0386173
0.0360539
0.0327462
0.0285675
0.0234538
0.0175512
0.0114503
0.00621674
0.00272308
0.000932222
0.000226447
2.97032e-05
1.01753e-06
0.0320559
0.034065
0.0359134
0.0375859
0.0390756
0.0403797
0.0414972
0.0424267
0.0431654
0.0437078
0.0440448
0.0441624
0.0440402
0.0436502
0.0429536
0.0418991
0.0404188
0.0384252
0.0358093
0.0324451
0.0282111
0.0230555
0.0171481
0.0111065
0.00599021
0.00261316
0.000893166
0.00021688
2.84473e-05
9.74534e-07
0.0324115
0.0343965
0.0362186
0.0378631
0.0393238
0.0405985
0.0416861
0.0425853
0.0432932
0.0438039
0.044108
0.0441908
0.0440314
0.0436009
0.0428596
0.0417551
0.0402184
0.0381614
0.0354749
0.0320354
0.0277285
0.0225201
0.0166119
0.0106558
0.00569769
0.00247265
0.000843457
0.000204715
2.68509e-05
9.19872e-07
0.0328501
0.0348053
0.0365943
0.0382035
0.0396278
0.0408656
0.0419158
0.0427773
0.0434466
0.0439177
0.0441803
0.0442193
0.044013
0.0435311
0.042733
0.041565
0.0399568
0.0378192
0.0350437
0.0315098
0.0271137
0.0218445
0.0159448
0.0101055
0.00534733
0.00230646
0.000784957
0.000190418
2.49749e-05
8.55637e-07
0.0333695
0.0352894
0.0370378
0.0386038
0.0399841
0.0411774
0.0421829
0.042999
0.043622
0.0440452
0.0442578
0.0442437
0.0439801
0.0434356
0.0425681
0.0413223
0.0396265
0.0373905
0.0345069
0.0308601
0.0263601
0.0210264
0.0151512
0.00946604
0.00494924
0.00212031
0.000719807
0.000174518
2.28891e-05
7.84214e-07
0.0339699
0.0358488
0.0375472
0.0390615
0.04039
0.0415316
0.0424851
0.0432484
0.0438172
0.0441841
0.0443376
0.0442605
0.0439287
0.0433093
0.0423588
0.0410199
0.0392193
0.0368664
0.0338551
0.0300772
0.0254613
0.0200651
0.0142388
0.00875084
0.00451532
0.00192056
0.000650321
0.000157585
2.06683e-05
7.08167e-07
0.034662
0.0364865
0.0381227
0.039578
0.0408489
0.0419328
0.0428276
0.0435307
0.0440372
0.0443388
0.0444232
0.0442719
0.0438595
0.0431517
0.0421027
0.0406536
0.0387295
0.0362394
0.0330804
0.0291543
0.0244141
0.0189646
0.013221
0.00797783
0.00405931
0.00171404
0.000578921
0.000140212
1.83905e-05
6.30162e-07
0.0354939
0.0372105
0.0387822
0.040179
0.0413905
0.0424129
0.0432443
0.0438814
0.0443189
0.0445475
0.0445534
0.044317
0.0438111
0.0429993
0.0418341
0.0402544
0.0381842
0.0355331
0.032203
0.0281101
0.0232389
0.0177509
0.012129
0.00717601
0.00359966
0.00150918
0.000508514
0.000123106
1.61481e-05
5.53379e-07
)
;

boundaryField
{
    walls
    {
        type            fixedValue;
        value           uniform 1e-10;
    }
    inlet
    {
        type            cyclic;
    }
    outlet
    {
        type            cyclic;
    }
}


// ************************************************************************* //
