/*--------------------------------*- C++ -*----------------------------------*\
| =========                 |                                                 |
| \\      /  F ield         | OpenFOAM: The Open Source CFD Toolbox           |
|  \\    /   O peration     | Version:  2306                                  |
|   \\  /    A nd           | Website:  www.openfoam.com                      |
|    \\/     M anipulation  |                                                 |
\*---------------------------------------------------------------------------*/
FoamFile
{
    version     2.0;
    format      ascii;
    arch        "LSB;label=32;scalar=64";
    class       volScalarField;
    location    "4685";
    object      nu;
}
// * * * * * * * * * * * * * * * * * * * * * * * * * * * * * * * * * * * * * //

dimensions      [0 2 -1 0 0 0 0];

internalField   nonuniform List<scalar> 
2800
(
0.00161559
0.00179957
0.00190039
0.00199492
0.00208536
0.00216723
0.00223732
0.00229279
0.00233126
0.00235097
0.00235097
0.00233126
0.00229279
0.00223732
0.00216723
0.00208536
0.00199492
0.00190039
0.00179956
0.00161559
0.00180183
0.00198053
0.00210655
0.00223098
0.00235075
0.00246167
0.00255868
0.00263683
0.00269173
0.00272008
0.00272008
0.00269173
0.00263683
0.00255868
0.00246167
0.00235075
0.00223098
0.00210655
0.00198053
0.00180182
0.00190255
0.00210697
0.00227903
0.00244947
0.00261584
0.00277297
0.00291353
0.00302916
0.00311178
0.0031549
0.0031549
0.00311178
0.00302916
0.00291353
0.00277297
0.00261584
0.00244947
0.00227903
0.00210697
0.00190255
0.00199683
0.0022316
0.00244979
0.00267354
0.00289761
0.00311446
0.0033133
0.00348073
0.00360268
0.00366714
0.00366714
0.00360268
0.00348073
0.0033133
0.00311446
0.00289761
0.00267354
0.00244979
0.0022316
0.00199683
0.00208695
0.00235142
0.00261635
0.00289787
0.00318929
0.00348025
0.00375521
0.00399337
0.00417099
0.00426638
0.00426638
0.00417099
0.00399337
0.00375521
0.00348024
0.00318929
0.00289787
0.00261635
0.00235142
0.00208695
0.00216847
0.00246231
0.00277356
0.00311491
0.00348048
0.00385852
0.00422873
0.00456064
0.0048157
0.00495558
0.00495558
0.0048157
0.00456064
0.00422873
0.00385852
0.00348048
0.00311491
0.00277356
0.00246231
0.00216847
0.00223822
0.00255926
0.00291414
0.00331386
0.00375563
0.00422896
0.00471078
0.00516049
0.00551926
0.00572153
0.00572153
0.00551926
0.00516049
0.00471078
0.00422896
0.00375563
0.00331386
0.00291414
0.00255926
0.00223822
0.0022934
0.00263733
0.00302975
0.00348134
0.00399392
0.00456107
0.00516072
0.00574505
0.0062323
0.00651699
0.00651699
0.0062323
0.00574505
0.00516072
0.00456107
0.00399392
0.00348134
0.00302975
0.00263733
0.0022934
0.00233165
0.00269217
0.00311233
0.0036033
0.00417162
0.00481627
0.0055197
0.00623254
0.00685443
0.00723294
0.00723294
0.00685443
0.00623254
0.0055197
0.00481628
0.00417162
0.0036033
0.00311233
0.00269217
0.00233165
0.00235124
0.00272048
0.00315543
0.00366776
0.00426704
0.00495623
0.00572209
0.00651738
0.00723311
0.00768258
0.00768258
0.00723311
0.00651738
0.00572209
0.00495623
0.00426705
0.00366776
0.00315543
0.00272048
0.00235124
0.00235124
0.00272048
0.00315543
0.00366776
0.00426704
0.00495623
0.00572209
0.00651738
0.00723311
0.00768258
0.00768258
0.00723311
0.00651738
0.00572209
0.00495623
0.00426705
0.00366776
0.00315543
0.00272048
0.00235124
0.00233165
0.00269217
0.00311233
0.0036033
0.00417162
0.00481627
0.0055197
0.00623254
0.00685443
0.00723294
0.00723294
0.00685443
0.00623254
0.0055197
0.00481628
0.00417162
0.0036033
0.00311233
0.00269217
0.00233165
0.0022934
0.00263733
0.00302975
0.00348134
0.00399392
0.00456107
0.00516072
0.00574505
0.0062323
0.00651699
0.00651699
0.0062323
0.00574505
0.00516072
0.00456107
0.00399392
0.00348134
0.00302975
0.00263733
0.0022934
0.00223822
0.00255926
0.00291414
0.00331386
0.00375563
0.00422896
0.00471078
0.00516049
0.00551926
0.00572153
0.00572153
0.00551926
0.00516049
0.00471078
0.00422896
0.00375563
0.00331386
0.00291414
0.00255926
0.00223822
0.00216847
0.00246231
0.00277356
0.00311491
0.00348048
0.00385852
0.00422873
0.00456064
0.0048157
0.00495558
0.00495558
0.0048157
0.00456064
0.00422873
0.00385852
0.00348048
0.00311491
0.00277356
0.00246231
0.00216847
0.00208695
0.00235142
0.00261635
0.00289787
0.00318929
0.00348024
0.00375521
0.00399337
0.00417099
0.00426638
0.00426638
0.00417099
0.00399337
0.00375521
0.00348024
0.00318929
0.00289787
0.00261635
0.00235142
0.00208695
0.00199683
0.0022316
0.00244979
0.00267354
0.00289761
0.00311446
0.0033133
0.00348073
0.00360268
0.00366714
0.00366714
0.00360268
0.00348073
0.0033133
0.00311446
0.00289761
0.00267354
0.00244979
0.0022316
0.00199683
0.00190255
0.00210697
0.00227903
0.00244947
0.00261584
0.00277297
0.00291353
0.00302916
0.00311178
0.0031549
0.0031549
0.00311178
0.00302916
0.00291353
0.00277297
0.00261584
0.00244947
0.00227903
0.00210697
0.00190255
0.00180182
0.00198053
0.00210655
0.00223098
0.00235075
0.00246167
0.00255868
0.00263683
0.00269173
0.00272008
0.00272008
0.00269173
0.00263683
0.00255868
0.00246167
0.00235075
0.00223098
0.00210655
0.00198053
0.00180182
0.00161559
0.00179956
0.00190039
0.00199492
0.00208536
0.00216723
0.00223732
0.00229279
0.00233126
0.00235097
0.00235097
0.00233126
0.00229279
0.00223732
0.00216723
0.00208536
0.00199492
0.00190039
0.00179956
0.00161559
0.00163354
0.00145047
0.00131536
0.00120129
0.00110382
0.0010196
0.000946157
0.000881592
0.000824433
0.000773523
0.00072794
0.00068694
0.000649917
0.000616374
0.000585897
0.000558148
0.000532845
0.000509769
0.000488763
0.000469765
0.000452873
0.00043844
0.000427076
0.000419312
0.000415049
0.000413414
0.000413215
0.000413521
0.000413846
0.000413989
0.00171607
0.00151284
0.00136877
0.00124673
0.00114262
0.00105296
0.000975033
0.000906726
0.000846415
0.00079282
0.000744926
0.00070192
0.00066314
0.000628045
0.000596191
0.000567208
0.000540793
0.000516705
0.000494764
0.000474879
0.000457105
0.000441746
0.000429407
0.000420723
0.000415757
0.00041372
0.000413363
0.000413636
0.000413962
0.000414106
0.00178604
0.00157128
0.0014166
0.00128699
0.00117698
0.00108254
0.00100066
0.000929053
0.000865949
0.000809969
0.000760021
0.000715231
0.000674892
0.000638426
0.000605356
0.000575288
0.000547898
0.000522923
0.000500165
0.000479506
0.000460965
0.000444802
0.000431605
0.000422084
0.000416453
0.000414022
0.000413507
0.000413748
0.000414082
0.000414232
0.00184684
0.00162501
0.0014608
0.00132397
0.00120832
0.00110937
0.00102382
0.000949159
0.000883495
0.000825343
0.000773534
0.000727136
0.000685397
0.000647701
0.000613545
0.000582509
0.00055425
0.000528485
0.000505
0.000483656
0.000464444
0.000447583
0.000433635
0.000423364
0.000417119
0.000414307
0.000413633
0.00041384
0.000414178
0.000414334
0.00190054
0.00167303
0.00150038
0.00135702
0.00123624
0.00113319
0.0010443
0.000966901
0.000898944
0.000838854
0.000785392
0.000737571
0.000694596
0.000655819
0.000620707
0.000588822
0.000559801
0.000533346
0.000509228
0.000487291
0.000467501
0.000450043
0.000435454
0.000424531
0.000417734
0.00041457
0.000413743
0.000413914
0.000414255
0.000414416
0.00194699
0.00171468
0.00153465
0.00138557
0.00126029
0.00115366
0.00106187
0.000982077
0.000912132
0.00085037
0.000795485
0.000746443
0.000702409
0.000662707
0.000626781
0.000594173
0.000564504
0.000537465
0.000512811
0.000490374
0.0004701
0.000452148
0.000437026
0.000425553
0.00041828
0.000414804
0.000413837
0.000413973
0.000414317
0.000414481
0.00198547
0.00174921
0.00156298
0.00140911
0.00128009
0.00117046
0.00107626
0.000994486
0.000922899
0.000859758
0.000803704
0.000753659
0.000708759
0.000668302
0.000631711
0.000598514
0.000568319
0.000540804
0.000515716
0.000492876
0.000472214
0.000453866
0.000438319
0.000426403
0.000418741
0.000415003
0.000413915
0.00041402
0.000414364
0.000414532
0.00201518
0.00177588
0.0015848
0.0014272
0.00129526
0.00118333
0.00108725
0.00100395
0.000931104
0.000866904
0.000809954
0.000759142
0.000713581
0.000672547
0.000635451
0.000601806
0.000571211
0.000543336
0.000517919
0.000494773
0.000473819
0.000455175
0.00043931
0.000427061
0.0004191
0.000415159
0.000413975
0.000414055
0.000414399
0.000414569
0.00203541
0.00179406
0.00159964
0.00143948
0.00130555
0.00119203
0.00109468
0.00101035
0.000936638
0.00087172
0.000814162
0.000762833
0.000716824
0.000675401
0.000637964
0.000604017
0.000573153
0.000545036
0.000519398
0.000496048
0.000474898
0.000456057
0.000439981
0.000427508
0.000419347
0.000415266
0.000414016
0.000414077
0.000414422
0.000414593
0.00204565
0.00180327
0.00160715
0.00144569
0.00131074
0.00119642
0.00109843
0.00101357
0.000939424
0.000874143
0.000816279
0.000764688
0.000718454
0.000676835
0.000639227
0.000605128
0.000574128
0.000545889
0.000520141
0.000496688
0.00047544
0.0004565
0.000440319
0.000427735
0.000419472
0.000415321
0.000414037
0.000414089
0.000414433
0.000414605
0.00204565
0.00180327
0.00160715
0.00144569
0.00131074
0.00119642
0.00109843
0.00101357
0.000939424
0.000874143
0.000816279
0.000764688
0.000718454
0.000676835
0.000639227
0.000605128
0.000574128
0.000545889
0.000520141
0.000496688
0.00047544
0.0004565
0.000440319
0.000427735
0.000419472
0.000415321
0.000414037
0.000414089
0.000414433
0.000414605
0.00203541
0.00179406
0.00159964
0.00143948
0.00130555
0.00119203
0.00109468
0.00101035
0.000936638
0.00087172
0.000814162
0.000762833
0.000716824
0.000675401
0.000637964
0.000604017
0.000573153
0.000545036
0.000519398
0.000496048
0.000474898
0.000456057
0.000439981
0.000427508
0.000419347
0.000415266
0.000414016
0.000414077
0.000414422
0.000414593
0.00201518
0.00177588
0.0015848
0.0014272
0.00129526
0.00118333
0.00108725
0.00100395
0.000931104
0.000866904
0.000809954
0.000759142
0.000713581
0.000672547
0.000635451
0.000601806
0.000571211
0.000543336
0.000517919
0.000494773
0.000473819
0.000455175
0.00043931
0.000427061
0.0004191
0.000415159
0.000413975
0.000414055
0.000414399
0.000414569
0.00198547
0.00174921
0.00156298
0.00140911
0.00128009
0.00117046
0.00107626
0.000994486
0.000922899
0.000859758
0.000803704
0.000753659
0.000708759
0.000668302
0.000631711
0.000598514
0.000568319
0.000540804
0.000515716
0.000492876
0.000472214
0.000453866
0.000438319
0.000426403
0.000418741
0.000415003
0.000413915
0.00041402
0.000414364
0.000414532
0.00194699
0.00171468
0.00153465
0.00138557
0.00126029
0.00115366
0.00106187
0.000982077
0.000912132
0.00085037
0.000795485
0.000746443
0.000702409
0.000662707
0.000626781
0.000594173
0.000564504
0.000537465
0.000512811
0.000490374
0.0004701
0.000452148
0.000437026
0.000425553
0.00041828
0.000414804
0.000413837
0.000413973
0.000414317
0.000414481
0.00190054
0.00167303
0.00150038
0.00135702
0.00123624
0.00113319
0.0010443
0.000966901
0.000898944
0.000838854
0.000785392
0.000737571
0.000694596
0.000655819
0.000620707
0.000588822
0.000559801
0.000533346
0.000509228
0.000487291
0.000467501
0.000450043
0.000435454
0.000424531
0.000417734
0.00041457
0.000413743
0.000413914
0.000414255
0.000414416
0.00184684
0.00162501
0.0014608
0.00132397
0.00120832
0.00110937
0.00102382
0.000949159
0.000883495
0.000825343
0.000773534
0.000727136
0.000685397
0.000647701
0.000613545
0.000582509
0.00055425
0.000528485
0.000505
0.000483656
0.000464444
0.000447583
0.000433635
0.000423364
0.000417119
0.000414307
0.000413633
0.00041384
0.000414178
0.000414334
0.00178604
0.00157128
0.0014166
0.00128699
0.00117698
0.00108254
0.00100066
0.000929053
0.000865949
0.000809969
0.000760021
0.000715231
0.000674892
0.000638426
0.000605356
0.000575288
0.000547898
0.000522923
0.000500165
0.000479506
0.000460965
0.000444802
0.000431605
0.000422084
0.000416453
0.000414022
0.000413507
0.000413748
0.000414082
0.000414232
0.00171607
0.00151284
0.00136877
0.00124673
0.00114262
0.00105296
0.000975033
0.000906726
0.000846415
0.00079282
0.000744926
0.00070192
0.00066314
0.000628045
0.000596191
0.000567208
0.000540793
0.000516705
0.000494764
0.000474879
0.000457105
0.000441746
0.000429407
0.000420723
0.000415757
0.00041372
0.000413363
0.000413636
0.000413962
0.000414106
0.00163354
0.00145047
0.00131536
0.00120129
0.00110382
0.0010196
0.000946157
0.000881592
0.000824433
0.000773523
0.00072794
0.00068694
0.000649917
0.000616374
0.000585897
0.000558148
0.000532845
0.000509769
0.000488763
0.000469765
0.000452873
0.00043844
0.000427076
0.000419312
0.000415049
0.000413414
0.000413215
0.000413521
0.000413846
0.000413989
0.00163019
0.00144691
0.00131256
0.00119911
0.0011021
0.00101824
0.000945072
0.000880729
0.000823749
0.000772983
0.000727515
0.000686606
0.000649655
0.000616166
0.000585731
0.000558011
0.000532729
0.000509668
0.000488672
0.000469682
0.000452795
0.000438364
0.000427
0.000419232
0.000414964
0.000413322
0.000413116
0.000413417
0.000413736
0.000413875
0.00171775
0.00151263
0.00136851
0.00124644
0.00114234
0.00105271
0.000974807
0.000906528
0.000846239
0.000792662
0.000744781
0.000701783
0.00066301
0.000627921
0.000596072
0.000567095
0.000540688
0.000516608
0.000494676
0.0004748
0.000457036
0.000441687
0.000429359
0.000420684
0.000415724
0.000413689
0.000413333
0.000413606
0.000413932
0.000414076
0.00178725
0.00157119
0.00141646
0.00128683
0.00117679
0.00108235
0.00100046
0.000928858
0.000865757
0.000809781
0.000759839
0.000715057
0.000674727
0.000638271
0.000605212
0.000575157
0.00054778
0.000522817
0.000500071
0.000479424
0.000460895
0.000444745
0.000431561
0.000422052
0.000416431
0.000414004
0.000413492
0.000413733
0.000414067
0.000414217
0.00184775
0.00162496
0.0014607
0.00132383
0.00120815
0.00110919
0.00102362
0.000948956
0.000883293
0.000825146
0.000773345
0.000726958
0.00068523
0.000647548
0.000613405
0.000582383
0.000554136
0.000528384
0.000504911
0.000483579
0.000464379
0.000447529
0.000433594
0.000423336
0.0004171
0.000414295
0.000413624
0.000413831
0.000414169
0.000414325
0.00190118
0.00167298
0.0015003
0.00135689
0.00123608
0.00113301
0.00104412
0.00096671
0.000898755
0.000838672
0.00078522
0.00073741
0.000694447
0.000655683
0.000620584
0.000588711
0.000559702
0.000533259
0.000509151
0.000487224
0.000467444
0.000449997
0.000435419
0.000424507
0.000417719
0.000414561
0.000413737
0.000413908
0.00041425
0.00041441
0.00194737
0.00171461
0.00153456
0.00138545
0.00126015
0.00115351
0.0010617
0.000981913
0.000911972
0.000850217
0.000795342
0.000746309
0.000702287
0.000662596
0.000626681
0.000594083
0.000564424
0.000537394
0.000512748
0.000490319
0.000470054
0.00045211
0.000436997
0.000425533
0.000418268
0.000414798
0.000413833
0.00041397
0.000414313
0.000414477
0.00198563
0.00174912
0.0015629
0.00140901
0.00127997
0.00117034
0.00107613
0.000994356
0.000922773
0.000859639
0.000803593
0.000753557
0.000708666
0.000668217
0.000631635
0.000598446
0.000568258
0.000540751
0.000515669
0.000492835
0.000472179
0.000453837
0.000438297
0.000426388
0.000418732
0.000414998
0.000413912
0.000414017
0.000414362
0.000414529
0.00201516
0.00177579
0.00158472
0.00142712
0.00129517
0.00118323
0.00108715
0.00100386
0.000931011
0.000866817
0.000809873
0.000759068
0.000713513
0.000672486
0.000635396
0.000601757
0.000571167
0.000543297
0.000517885
0.000494744
0.000473794
0.000455154
0.000439294
0.00042705
0.000419093
0.000415155
0.000413973
0.000414053
0.000414397
0.000414567
0.00203527
0.00179396
0.00159956
0.00143941
0.00130547
0.00119196
0.00109461
0.00101028
0.00093657
0.000871657
0.000814104
0.000762779
0.000716776
0.000675358
0.000637925
0.000603983
0.000573122
0.000545009
0.000519375
0.000496027
0.00047488
0.000456042
0.000439969
0.0004275
0.000419342
0.000415263
0.000414014
0.000414076
0.00041442
0.000414592
0.00204546
0.00180317
0.00160708
0.00144563
0.00131068
0.00119636
0.00109837
0.00101351
0.00093937
0.000874093
0.000816233
0.000764646
0.000718416
0.000676802
0.000639196
0.000605101
0.000574105
0.000545868
0.000520123
0.000496672
0.000475427
0.000456489
0.00044031
0.000427728
0.000419468
0.000415319
0.000414035
0.000414087
0.000414431
0.000414604
0.00204546
0.00180317
0.00160708
0.00144563
0.00131068
0.00119636
0.00109837
0.00101351
0.00093937
0.000874093
0.000816233
0.000764646
0.000718416
0.000676802
0.000639196
0.000605101
0.000574105
0.000545868
0.000520123
0.000496672
0.000475427
0.000456489
0.00044031
0.000427728
0.000419468
0.000415319
0.000414035
0.000414087
0.000414431
0.000414604
0.00203527
0.00179396
0.00159956
0.00143941
0.00130547
0.00119196
0.00109461
0.00101028
0.00093657
0.000871657
0.000814104
0.000762779
0.000716776
0.000675358
0.000637925
0.000603983
0.000573122
0.000545009
0.000519375
0.000496027
0.00047488
0.000456042
0.000439969
0.0004275
0.000419342
0.000415263
0.000414014
0.000414076
0.00041442
0.000414592
0.00201516
0.00177579
0.00158472
0.00142712
0.00129517
0.00118323
0.00108715
0.00100386
0.000931011
0.000866817
0.000809873
0.000759068
0.000713513
0.000672486
0.000635396
0.000601757
0.000571167
0.000543297
0.000517885
0.000494744
0.000473794
0.000455154
0.000439294
0.00042705
0.000419093
0.000415155
0.000413973
0.000414053
0.000414397
0.000414567
0.00198563
0.00174912
0.0015629
0.00140901
0.00127997
0.00117034
0.00107613
0.000994356
0.000922773
0.000859639
0.000803593
0.000753557
0.000708666
0.000668217
0.000631635
0.000598446
0.000568258
0.000540751
0.000515669
0.000492835
0.000472179
0.000453837
0.000438297
0.000426388
0.000418732
0.000414998
0.000413912
0.000414017
0.000414362
0.000414529
0.00194737
0.00171461
0.00153456
0.00138545
0.00126015
0.00115351
0.0010617
0.000981913
0.000911972
0.000850217
0.000795342
0.000746309
0.000702287
0.000662596
0.000626681
0.000594083
0.000564424
0.000537394
0.000512748
0.000490319
0.000470054
0.00045211
0.000436997
0.000425533
0.000418268
0.000414798
0.000413833
0.00041397
0.000414313
0.000414477
0.00190118
0.00167298
0.0015003
0.00135689
0.00123608
0.00113301
0.00104412
0.00096671
0.000898755
0.000838672
0.00078522
0.00073741
0.000694447
0.000655683
0.000620584
0.000588711
0.000559702
0.000533259
0.000509151
0.000487224
0.000467444
0.000449997
0.000435419
0.000424507
0.000417719
0.000414561
0.000413737
0.000413908
0.00041425
0.00041441
0.00184775
0.00162496
0.0014607
0.00132383
0.00120815
0.00110919
0.00102362
0.000948956
0.000883293
0.000825146
0.000773345
0.000726958
0.00068523
0.000647548
0.000613405
0.000582383
0.000554136
0.000528384
0.000504911
0.000483579
0.000464379
0.000447529
0.000433594
0.000423336
0.0004171
0.000414295
0.000413624
0.000413831
0.000414169
0.000414325
0.00178725
0.00157119
0.00141646
0.00128683
0.00117679
0.00108235
0.00100046
0.000928858
0.000865757
0.000809781
0.000759839
0.000715057
0.000674727
0.000638271
0.000605212
0.000575157
0.00054778
0.000522817
0.000500071
0.000479424
0.000460895
0.000444745
0.000431561
0.000422052
0.000416431
0.000414004
0.000413492
0.000413733
0.000414067
0.000414217
0.00171775
0.00151263
0.00136851
0.00124644
0.00114234
0.00105271
0.000974807
0.000906528
0.000846239
0.000792662
0.000744781
0.000701783
0.00066301
0.000627921
0.000596072
0.000567095
0.000540688
0.000516608
0.000494676
0.0004748
0.000457036
0.000441687
0.000429359
0.000420684
0.000415724
0.000413689
0.000413333
0.000413606
0.000413932
0.000414076
0.00163019
0.00144691
0.00131256
0.00119911
0.0011021
0.00101824
0.000945072
0.000880729
0.000823749
0.000772983
0.000727515
0.000686606
0.000649655
0.000616166
0.000585731
0.000558011
0.000532729
0.000509668
0.000488672
0.000469682
0.000452795
0.000438364
0.000427
0.000419232
0.000414964
0.000413322
0.000413116
0.000413417
0.000413736
0.000413875
0.00163354
0.00145047
0.00131536
0.00120129
0.00110382
0.0010196
0.000946157
0.000881592
0.000824433
0.000773523
0.00072794
0.00068694
0.000649917
0.000616374
0.000585897
0.000558148
0.000532845
0.000509769
0.000488763
0.000469765
0.000452873
0.00043844
0.000427076
0.000419312
0.000415049
0.000413414
0.000413215
0.000413521
0.000413846
0.000413989
0.00171607
0.00151284
0.00136877
0.00124673
0.00114262
0.00105296
0.000975033
0.000906726
0.000846415
0.00079282
0.000744926
0.00070192
0.00066314
0.000628045
0.000596191
0.000567208
0.000540793
0.000516705
0.000494764
0.000474879
0.000457105
0.000441746
0.000429407
0.000420723
0.000415757
0.00041372
0.000413363
0.000413636
0.000413962
0.000414106
0.00178604
0.00157128
0.0014166
0.00128699
0.00117698
0.00108254
0.00100066
0.000929053
0.000865949
0.000809969
0.000760021
0.000715231
0.000674892
0.000638426
0.000605356
0.000575288
0.000547898
0.000522923
0.000500165
0.000479506
0.000460965
0.000444802
0.000431605
0.000422084
0.000416453
0.000414022
0.000413507
0.000413748
0.000414082
0.000414232
0.00184684
0.00162501
0.0014608
0.00132397
0.00120832
0.00110937
0.00102382
0.000949159
0.000883495
0.000825343
0.000773534
0.000727136
0.000685397
0.000647701
0.000613545
0.000582509
0.00055425
0.000528485
0.000505
0.000483656
0.000464444
0.000447583
0.000433635
0.000423364
0.000417119
0.000414307
0.000413633
0.00041384
0.000414178
0.000414334
0.00190054
0.00167303
0.00150038
0.00135702
0.00123624
0.00113319
0.0010443
0.000966901
0.000898944
0.000838854
0.000785392
0.000737571
0.000694596
0.000655819
0.000620707
0.000588822
0.000559801
0.000533346
0.000509228
0.000487291
0.000467501
0.000450043
0.000435454
0.000424531
0.000417734
0.00041457
0.000413743
0.000413914
0.000414255
0.000414416
0.00194699
0.00171468
0.00153465
0.00138557
0.00126029
0.00115366
0.00106187
0.000982077
0.000912132
0.00085037
0.000795485
0.000746443
0.000702409
0.000662707
0.000626781
0.000594173
0.000564504
0.000537465
0.000512811
0.000490374
0.0004701
0.000452148
0.000437026
0.000425553
0.00041828
0.000414804
0.000413837
0.000413973
0.000414317
0.000414481
0.00198547
0.00174921
0.00156298
0.00140911
0.00128009
0.00117046
0.00107626
0.000994486
0.000922899
0.000859758
0.000803704
0.000753659
0.000708759
0.000668302
0.000631711
0.000598514
0.000568319
0.000540804
0.000515716
0.000492876
0.000472214
0.000453866
0.000438319
0.000426403
0.000418741
0.000415003
0.000413915
0.00041402
0.000414364
0.000414532
0.00201518
0.00177588
0.0015848
0.0014272
0.00129526
0.00118333
0.00108725
0.00100395
0.000931104
0.000866904
0.000809954
0.000759142
0.000713581
0.000672547
0.000635451
0.000601806
0.000571211
0.000543336
0.000517919
0.000494773
0.000473819
0.000455175
0.00043931
0.000427061
0.0004191
0.000415159
0.000413975
0.000414055
0.000414399
0.000414569
0.00203541
0.00179406
0.00159964
0.00143948
0.00130555
0.00119203
0.00109468
0.00101035
0.000936638
0.00087172
0.000814162
0.000762833
0.000716824
0.000675401
0.000637964
0.000604017
0.000573153
0.000545036
0.000519398
0.000496048
0.000474898
0.000456057
0.000439981
0.000427508
0.000419347
0.000415266
0.000414016
0.000414077
0.000414422
0.000414593
0.00204565
0.00180327
0.00160715
0.00144569
0.00131074
0.00119642
0.00109843
0.00101357
0.000939424
0.000874143
0.000816279
0.000764688
0.000718454
0.000676835
0.000639227
0.000605128
0.000574128
0.000545889
0.000520141
0.000496688
0.00047544
0.0004565
0.000440319
0.000427735
0.000419472
0.000415321
0.000414037
0.000414089
0.000414433
0.000414605
0.00204565
0.00180327
0.00160715
0.00144569
0.00131074
0.00119642
0.00109843
0.00101357
0.000939424
0.000874143
0.000816279
0.000764688
0.000718454
0.000676835
0.000639227
0.000605128
0.000574128
0.000545889
0.000520141
0.000496688
0.00047544
0.0004565
0.000440319
0.000427735
0.000419472
0.000415321
0.000414037
0.000414089
0.000414433
0.000414605
0.00203541
0.00179406
0.00159964
0.00143948
0.00130555
0.00119203
0.00109468
0.00101035
0.000936638
0.00087172
0.000814162
0.000762833
0.000716824
0.000675401
0.000637964
0.000604017
0.000573153
0.000545036
0.000519398
0.000496048
0.000474898
0.000456057
0.000439981
0.000427508
0.000419347
0.000415266
0.000414016
0.000414077
0.000414422
0.000414593
0.00201518
0.00177588
0.0015848
0.0014272
0.00129526
0.00118333
0.00108725
0.00100395
0.000931104
0.000866904
0.000809954
0.000759142
0.000713581
0.000672547
0.000635451
0.000601806
0.000571211
0.000543336
0.000517919
0.000494773
0.000473819
0.000455175
0.00043931
0.000427061
0.0004191
0.000415159
0.000413975
0.000414055
0.000414399
0.000414569
0.00198547
0.00174921
0.00156298
0.00140911
0.00128009
0.00117046
0.00107626
0.000994486
0.000922899
0.000859758
0.000803704
0.000753659
0.000708759
0.000668302
0.000631711
0.000598514
0.000568319
0.000540804
0.000515716
0.000492876
0.000472214
0.000453866
0.000438319
0.000426403
0.000418741
0.000415003
0.000413915
0.00041402
0.000414364
0.000414532
0.00194699
0.00171468
0.00153465
0.00138557
0.00126029
0.00115366
0.00106187
0.000982077
0.000912132
0.00085037
0.000795485
0.000746443
0.000702409
0.000662707
0.000626781
0.000594173
0.000564504
0.000537465
0.000512811
0.000490374
0.0004701
0.000452148
0.000437026
0.000425553
0.00041828
0.000414804
0.000413837
0.000413973
0.000414317
0.000414481
0.00190054
0.00167303
0.00150038
0.00135702
0.00123624
0.00113319
0.0010443
0.000966901
0.000898944
0.000838854
0.000785392
0.000737571
0.000694596
0.000655819
0.000620707
0.000588822
0.000559801
0.000533346
0.000509228
0.000487291
0.000467501
0.000450043
0.000435454
0.000424531
0.000417734
0.00041457
0.000413743
0.000413914
0.000414255
0.000414416
0.00184684
0.00162501
0.0014608
0.00132397
0.00120832
0.00110937
0.00102382
0.000949158
0.000883495
0.000825342
0.000773533
0.000727136
0.000685397
0.000647701
0.000613545
0.000582509
0.00055425
0.000528485
0.000505
0.000483656
0.000464444
0.000447583
0.000433635
0.000423364
0.000417119
0.000414307
0.000413633
0.00041384
0.000414178
0.000414334
0.00178605
0.00157128
0.0014166
0.00128699
0.00117698
0.00108254
0.00100066
0.000929053
0.000865949
0.000809969
0.000760021
0.000715231
0.000674892
0.000638426
0.000605356
0.000575288
0.000547898
0.000522923
0.000500165
0.000479506
0.000460965
0.000444802
0.000431605
0.000422084
0.000416453
0.000414022
0.000413507
0.000413748
0.000414082
0.000414232
0.00171608
0.00151284
0.00136877
0.00124673
0.00114262
0.00105296
0.000975032
0.000906726
0.000846415
0.00079282
0.000744926
0.00070192
0.00066314
0.000628045
0.000596191
0.000567208
0.000540793
0.000516705
0.000494764
0.000474879
0.000457105
0.000441746
0.000429407
0.000420723
0.000415757
0.00041372
0.000413363
0.000413636
0.000413962
0.000414106
0.00163353
0.00145047
0.00131535
0.00120129
0.00110382
0.0010196
0.000946157
0.000881592
0.000824434
0.000773523
0.00072794
0.00068694
0.000649917
0.000616374
0.000585897
0.000558148
0.000532845
0.000509769
0.000488763
0.000469765
0.000452873
0.00043844
0.000427076
0.000419312
0.000415049
0.000413414
0.000413215
0.000413521
0.000413846
0.000413989
0.00163018
0.00144691
0.00131256
0.00119911
0.0011021
0.00101824
0.000945072
0.000880729
0.000823749
0.000772983
0.000727515
0.000686606
0.000649655
0.000616166
0.000585731
0.000558011
0.000532729
0.000509668
0.000488672
0.000469682
0.000452795
0.000438364
0.000427
0.000419232
0.000414964
0.000413322
0.000413116
0.000413417
0.000413736
0.000413875
0.00171775
0.00151263
0.00136851
0.00124644
0.00114234
0.00105271
0.000974806
0.000906528
0.000846239
0.000792662
0.000744781
0.000701783
0.00066301
0.000627921
0.000596072
0.000567095
0.000540688
0.000516608
0.000494676
0.0004748
0.000457036
0.000441687
0.000429359
0.000420684
0.000415724
0.000413689
0.000413333
0.000413606
0.000413932
0.000414076
0.00178725
0.00157119
0.00141646
0.00128682
0.00117679
0.00108235
0.00100046
0.000928858
0.000865757
0.000809781
0.000759839
0.000715057
0.000674727
0.000638271
0.000605212
0.000575157
0.00054778
0.000522817
0.000500071
0.000479424
0.000460895
0.000444745
0.000431561
0.000422052
0.000416431
0.000414004
0.000413492
0.000413733
0.000414067
0.000414217
0.00184775
0.00162496
0.0014607
0.00132383
0.00120815
0.00110918
0.00102362
0.000948956
0.000883293
0.000825146
0.000773345
0.000726958
0.00068523
0.000647548
0.000613405
0.000582383
0.000554136
0.000528384
0.000504911
0.000483579
0.000464379
0.000447529
0.000433594
0.000423336
0.0004171
0.000414295
0.000413624
0.000413831
0.000414169
0.000414325
0.00190118
0.00167298
0.0015003
0.00135689
0.00123608
0.00113301
0.00104412
0.00096671
0.000898755
0.000838672
0.00078522
0.00073741
0.000694447
0.000655683
0.000620584
0.000588711
0.000559702
0.000533259
0.000509151
0.000487224
0.000467444
0.000449997
0.000435419
0.000424507
0.000417719
0.000414561
0.000413737
0.000413908
0.00041425
0.00041441
0.00194737
0.00171461
0.00153456
0.00138545
0.00126015
0.00115351
0.0010617
0.000981913
0.000911972
0.000850217
0.000795341
0.000746309
0.000702287
0.000662596
0.000626681
0.000594083
0.000564424
0.000537394
0.000512748
0.000490319
0.000470054
0.00045211
0.000436997
0.000425533
0.000418268
0.000414798
0.000413833
0.00041397
0.000414313
0.000414477
0.00198563
0.00174912
0.0015629
0.00140901
0.00127997
0.00117034
0.00107613
0.000994356
0.000922773
0.000859639
0.000803593
0.000753557
0.000708666
0.000668217
0.000631635
0.000598446
0.000568258
0.000540751
0.000515669
0.000492835
0.000472179
0.000453837
0.000438297
0.000426388
0.000418732
0.000414998
0.000413912
0.000414017
0.000414362
0.000414529
0.00201516
0.00177579
0.00158472
0.00142712
0.00129517
0.00118323
0.00108715
0.00100386
0.000931011
0.000866817
0.000809873
0.000759068
0.000713513
0.000672486
0.000635396
0.000601757
0.000571167
0.000543297
0.000517885
0.000494744
0.000473794
0.000455154
0.000439294
0.00042705
0.000419093
0.000415155
0.000413973
0.000414053
0.000414397
0.000414567
0.00203527
0.00179396
0.00159956
0.00143941
0.00130547
0.00119196
0.00109461
0.00101028
0.00093657
0.000871657
0.000814104
0.000762779
0.000716776
0.000675358
0.000637925
0.000603983
0.000573122
0.000545009
0.000519375
0.000496027
0.00047488
0.000456042
0.000439969
0.0004275
0.000419342
0.000415263
0.000414014
0.000414076
0.00041442
0.000414592
0.00204546
0.00180317
0.00160708
0.00144563
0.00131068
0.00119636
0.00109837
0.00101351
0.00093937
0.000874093
0.000816233
0.000764646
0.000718416
0.000676802
0.000639196
0.000605101
0.000574105
0.000545868
0.000520123
0.000496672
0.000475427
0.000456489
0.00044031
0.000427728
0.000419468
0.000415319
0.000414035
0.000414087
0.000414431
0.000414604
0.00204546
0.00180317
0.00160708
0.00144563
0.00131068
0.00119636
0.00109837
0.00101351
0.00093937
0.000874093
0.000816233
0.000764646
0.000718416
0.000676802
0.000639196
0.000605101
0.000574105
0.000545868
0.000520123
0.000496672
0.000475427