/*--------------------------------*- C++ -*----------------------------------*\
| =========                 |                                                 |
| \\      /  F ield         | OpenFOAM: The Open Source CFD Toolbox           |
|  \\    /   O peration     | Version:  2306                                  |
|   \\  /    A nd           | Website:  www.openfoam.com                      |
|    \\/     M anipulation  |                                                 |
\*---------------------------------------------------------------------------*/
FoamFile
{
    version     2.0;
    format      ascii;
    arch        "LSB;label=32;scalar=64";
    class       volScalarField;
    location    "4685";
    object      nun;
}
// * * * * * * * * * * * * * * * * * * * * * * * * * * * * * * * * * * * * * //

dimensions      [0 2 -1 0 0 0 0];

internalField   nonuniform List<scalar> 
2800
(
-0.000890973
-0.0010961
-0.00117594
-0.00124873
-0.00132036
-0.00138592
-0.00144246
-0.00148748
-0.00151885
-0.00153496
-0.00153496
-0.00151885
-0.00148748
-0.00144246
-0.00138592
-0.00132036
-0.00124873
-0.00117594
-0.0010961
-0.000890972
-0.00109925
-0.00127337
-0.0013611
-0.00144919
-0.00153526
-0.00161611
-0.00168761
-0.0017457
-0.00178679
-0.00180809
-0.00180809
-0.00178679
-0.0017457
-0.00168761
-0.00161611
-0.00153526
-0.00144919
-0.0013611
-0.00127337
-0.00109925
-0.00117887
-0.00136147
-0.00148738
-0.00161081
-0.00173207
-0.00184821
-0.00195376
-0.00204192
-0.00210568
-0.00213923
-0.00213923
-0.00210568
-0.00204192
-0.00195376
-0.00184821
-0.00173207
-0.00161081
-0.00148738
-0.00136147
-0.00117887
-0.00125128
-0.00144974
-0.00161109
-0.00177655
-0.00194395
-0.00210912
-0.00226424
-0.00239806
-0.00249755
-0.00255088
-0.00255088
-0.00249755
-0.00239806
-0.00226424
-0.00210912
-0.00194395
-0.00177655
-0.00161109
-0.00144974
-0.00125128
-0.00132244
-0.00153586
-0.00173253
-0.0019442
-0.00216824
-0.0023991
-0.00262557
-0.00282929
-0.00298624
-0.00307242
-0.00307242
-0.00298624
-0.00282929
-0.00262557
-0.0023991
-0.00216824
-0.0019442
-0.00173252
-0.00153586
-0.00132244
-0.00138752
-0.00161669
-0.00184874
-0.00210954
-0.00239933
-0.0027138
-0.00303932
-0.00334799
-0.00359699
-0.00373815
-0.00373815
-0.00359699
-0.00334799
-0.00303932
-0.0027138
-0.00239933
-0.00210954
-0.00184874
-0.00161669
-0.00138752
-0.00144358
-0.00168812
-0.00195431
-0.00226476
-0.00262599
-0.00303956
-0.00349389
-0.00395219
-0.00434366
-0.00457503
-0.00457503
-0.00434366
-0.00395219
-0.00349389
-0.00303956
-0.00262598
-0.00226476
-0.00195431
-0.00168812
-0.00144358
-0.00148819
-0.00174614
-0.00204244
-0.00239862
-0.00282984
-0.00334845
-0.00395247
-0.00460316
-0.00519697
-0.00556677
-0.00556677
-0.00519697
-0.00460316
-0.00395247
-0.00334845
-0.00282984
-0.00239862
-0.00204244
-0.00174614
-0.00148819
-0.00151925
-0.00178716
-0.00210616
-0.00249813
-0.00298688
-0.00359763
-0.0043442
-0.0051973
-0.00602879
-0.00657736
-0.00657737
-0.00602879
-0.0051973
-0.0043442
-0.00359763
-0.00298688
-0.00249813
-0.00210616
-0.00178716
-0.00151925
-0.0015352
-0.00180843
-0.00213969
-0.00255145
-0.00307309
-0.00373888
-0.00457574
-0.00556733
-0.00657764
-0.00727332
-0.00727332
-0.00657764
-0.00556733
-0.00457574
-0.00373888
-0.00307309
-0.00255145
-0.00213969
-0.00180843
-0.0015352
-0.0015352
-0.00180843
-0.00213969
-0.00255145
-0.00307309
-0.00373888
-0.00457574
-0.00556733
-0.00657764
-0.00727332
-0.00727332
-0.00657764
-0.00556733
-0.00457574
-0.00373888
-0.00307309
-0.00255145
-0.00213969
-0.00180843
-0.0015352
-0.00151925
-0.00178716
-0.00210616
-0.00249813
-0.00298688
-0.00359763
-0.0043442
-0.0051973
-0.00602879
-0.00657737
-0.00657737
-0.00602879
-0.0051973
-0.0043442
-0.00359763
-0.00298688
-0.00249813
-0.00210616
-0.00178716
-0.00151925
-0.00148819
-0.00174614
-0.00204244
-0.00239862
-0.00282984
-0.00334845
-0.00395247
-0.00460316
-0.00519697
-0.00556678
-0.00556678
-0.00519697
-0.00460316
-0.00395247
-0.00334845
-0.00282984
-0.00239862
-0.00204244
-0.00174614
-0.00148819
-0.00144358
-0.00168812
-0.00195431
-0.00226476
-0.00262598
-0.00303956
-0.00349389
-0.00395219
-0.00434366
-0.00457503
-0.00457503
-0.00434366
-0.00395219
-0.00349389
-0.00303956
-0.00262598
-0.00226476
-0.00195431
-0.00168812
-0.00144358
-0.00138752
-0.00161669
-0.00184874
-0.00210954
-0.00239933
-0.0027138
-0.00303932
-0.00334799
-0.003597
-0.00373815
-0.00373815
-0.003597
-0.00334799
-0.00303932
-0.0027138
-0.00239933
-0.00210954
-0.00184874
-0.00161669
-0.00138752
-0.00132244
-0.00153586
-0.00173252
-0.0019442
-0.00216824
-0.0023991
-0.00262557
-0.00282929
-0.00298624
-0.00307242
-0.00307242
-0.00298624
-0.00282929
-0.00262557
-0.0023991
-0.00216824
-0.0019442
-0.00173252
-0.00153586
-0.00132244
-0.00125128
-0.00144974
-0.00161109
-0.00177655
-0.00194395
-0.00210912
-0.00226424
-0.00239806
-0.00249755
-0.00255088
-0.00255088
-0.00249755
-0.00239806
-0.00226424
-0.00210912
-0.00194395
-0.00177655
-0.00161109
-0.00144974
-0.00125128
-0.00117887
-0.00136147
-0.00148738
-0.00161081
-0.00173207
-0.00184821
-0.00195376
-0.00204192
-0.00210568
-0.00213923
-0.00213923
-0.00210568
-0.00204192
-0.00195376
-0.00184821
-0.00173207
-0.00161081
-0.00148738
-0.00136147
-0.00117887
-0.00109925
-0.00127337
-0.0013611
-0.00144919
-0.00153526
-0.00161611
-0.00168761
-0.0017457
-0.00178679
-0.00180809
-0.00180809
-0.00178679
-0.0017457
-0.00168761
-0.00161611
-0.00153526
-0.00144919
-0.0013611
-0.00127337
-0.00109925
-0.000890972
-0.00109609
-0.00117594
-0.00124873
-0.00132036
-0.00138592
-0.00144246
-0.00148748
-0.00151885
-0.00153496
-0.00153496
-0.00151885
-0.00148748
-0.00144246
-0.00138592
-0.00132036
-0.00124873
-0.00117594
-0.00109609
-0.000890972
-0.00103317
-0.000869649
-0.000764591
-0.00067519
-0.000597737
-0.000529795
-0.000469637
-0.000415969
-0.000367783
-0.00032428
-0.000284813
-0.000248855
-0.000215974
-0.000185813
-0.000158087
-0.000132571
-0.000109111
-8.76304e-05
-6.81531e-05
-5.08374e-05
-3.59992e-05
-2.40567e-05
-1.52881e-05
-9.49302e-06
-5.95725e-06
-3.8075e-06
-2.37717e-06
-1.3227e-06
-5.48834e-07
-1.09059e-07
-0.00109625
-0.00091627
-0.000806795
-0.000711785
-0.000629326
-0.000557183
-0.00049353
-0.000436933
-0.000386268
-0.000340642
-0.000299337
-0.000261774
-0.000227475
-0.000196051
-0.000167188
-0.000140637
-0.000116217
-9.38259e-05
-7.34576e-05
-5.52381e-05
-3.94593e-05
-2.65551e-05
-1.68946e-05
-1.04059e-05
-6.43204e-06
-4.05246e-06
-2.50986e-06
-1.39278e-06
-5.77654e-07
-1.14771e-07
-0.00114618
-0.000960171
-0.000842902
-0.000742773
-0.000656267
-0.000580765
-0.000514272
-0.00045525
-0.000402497
-0.00035506
-0.000312175
-0.000273222
-0.000237694
-0.000205176
-0.000175328
-0.00014788
-0.000122628
-9.94481e-05
-7.83073e-05
-5.93027e-05
-4.2701e-05
-2.89396e-05
-1.84583e-05
-1.13065e-05
-6.90009e-06
-4.28985e-06
-2.63601e-06
-1.4589e-06
-6.04881e-07
-1.20186e-07
-0.00118645
-0.0010006
-0.000876503
-0.000771312
-0.000680855
-0.000602147
-0.000532994
-0.000471727
-0.00041706
-0.000367974
-0.000323659
-0.000283456
-0.000246827
-0.00021333
-0.000182604
-0.000154358
-0.000128369
-0.000104493
-8.2674e-05
-6.29846e-05
-4.56667e-05
-3.11529e-05
-1.9934e-05
-1.21671e-05
-7.34746e-06
-4.51307e-06
-2.75212e-06
-1.51908e-06
-6.29603e-07
-1.25105e-07
-0.00122095
-0.00103652
-0.000906536
-0.000796781
-0.000702711
-0.00062108
-0.000549514
-0.000486228
-0.000429848
-0.000379297
-0.000333715
-0.000292408
-0.00025481
-0.000220454
-0.000188959
-0.000160016
-0.000133386
-0.000108906
-8.6504e-05
-6.62287e-05
-4.83002e-05
-3.31418e-05
-2.12794e-05
-1.29611e-05
-7.76103e-06
-4.71679e-06
-2.85604e-06
-1.57234e-06
-6.51434e-07
-1.2945e-07
-0.00125034
-0.00106753
-0.000932445
-0.000818714
-0.000721486
-0.0006373
-0.000563633
-0.000498595
-0.000440735
-0.000388921
-0.000342252
-0.000300001
-0.000261575
-0.000226487
-0.000194338
-0.000164805
-0.000137633
-0.000112646
-8.97554e-05
-6.89923e-05
-5.05574e-05
-3.4863e-05
-2.2458e-05
-1.3664e-05
-8.1283e-06
-4.89596e-06
-2.94592e-06
-1.61794e-06
-6.7008e-07
-1.33162e-07
-0.00127446
-0.00109317
-0.000953798
-0.000836746
-0.000736886
-0.000650576
-0.000575167
-0.00050868
-0.000449601
-0.00039675
-0.000349189
-0.000306165
-0.000267063
-0.000231378
-0.000198698
-0.000168685
-0.000141075
-0.000115678
-9.23949e-05
-7.12417e-05
-5.24033e-05
-3.62811e-05
-2.34386e-05
-1.42543e-05
-8.43773e-06
-5.04585e-06
-3.02009e-06
-1.65524e-06
-6.85297e-07
-1.36191e-07
-0.00129295
-0.00111293
-0.000970205
-0.000850568
-0.000748666
-0.000660713
-0.000583961
-0.000516359
-0.000456344
-0.000402698
-0.000354455
-0.000310841
-0.000271223
-0.000235085
-0.000202
-0.000171623
-0.000143681
-0.000117976
-9.43967e-05
-7.29509e-05
-5.38107e-05
-3.73684e-05
-2.41962e-05
-1.47136e-05
-8.67929e-06
-5.1623e-06
-3.0771e-06
-1.68369e-06
-6.96886e-07
-1.38498e-07
-0.00130549
-0.00112638
-0.000981342
-0.000859931
-0.000756633
-0.00066756
-0.000589894
-0.000521534
-0.000460884
-0.0004067
-0.000357997
-0.000313984
-0.000274018
-0.000237574
-0.000204217
-0.000173596
-0.000145431
-0.000119518
-9.57417e-05
-7.41008e-05
-5.47598e-05
-3.81045e-05
-2.47118e-05
-1.50279e-05
-8.84499e-06
-5.24193e-06
-3.11579e-06
-1.7029e-06
-7.04698e-07
-1.40054e-07
-0.00131183
-0.0011332
-0.000986973
-0.000864659
-0.000760652
-0.000671011
-0.000592881
-0.000524139
-0.000463168
-0.000408712
-0.000359777
-0.000315563
-0.000275423
-0.000238824
-0.000205331
-0.000174586
-0.000146309
-0.000120293
-9.64174e-05
-7.46788e-05
-5.52375e-05
-3.84759e-05
-2.49728e-05
-1.51875e-05
-8.92927e-06
-5.28236e-06
-3.13534e-06
-1.71258e-06
-7.08629e-07
-1.40836e-07
-0.00131183
-0.0011332
-0.000986973
-0.000864659
-0.000760652
-0.000671011
-0.000592881
-0.000524139
-0.000463168
-0.000408712
-0.000359777
-0.000315563
-0.000275423
-0.000238824
-0.000205331
-0.000174586
-0.000146309
-0.000120293
-9.64174e-05
-7.46788e-05
-5.52375e-05
-3.84759e-05
-2.49728e-05
-1.51875e-05
-8.92927e-06
-5.28236e-06
-3.13534e-06
-1.71258e-06
-7.08629e-07
-1.40836e-07
-0.00130549
-0.00112638
-0.000981342
-0.000859931
-0.000756633
-0.00066756
-0.000589894
-0.000521534
-0.000460884
-0.0004067
-0.000357997
-0.000313984
-0.000274018
-0.000237574
-0.000204217
-0.000173596
-0.000145431
-0.000119518
-9.57417e-05
-7.41008e-05
-5.47598e-05
-3.81045e-05
-2.47118e-05
-1.50279e-05
-8.84499e-06
-5.24193e-06
-3.11579e-06
-1.7029e-06
-7.04698e-07
-1.40054e-07
-0.00129295
-0.00111293
-0.000970205
-0.000850568
-0.000748666
-0.000660713
-0.000583961
-0.000516359
-0.000456344
-0.000402698
-0.000354455
-0.000310841
-0.000271223
-0.000235085
-0.000202
-0.000171623
-0.000143681
-0.000117976
-9.43967e-05
-7.29509e-05
-5.38107e-05
-3.73684e-05
-2.41962e-05
-1.47136e-05
-8.67929e-06
-5.1623e-06
-3.0771e-06
-1.68369e-06
-6.96886e-07
-1.38498e-07
-0.00127446
-0.00109317
-0.000953797
-0.000836746
-0.000736886
-0.000650576
-0.000575167
-0.00050868
-0.000449601
-0.00039675
-0.000349189
-0.000306165
-0.000267063
-0.000231378
-0.000198698
-0.000168685
-0.000141075
-0.000115678
-9.23949e-05
-7.12417e-05
-5.24033e-05
-3.62811e-05
-2.34386e-05
-1.42543e-05
-8.43773e-06
-5.04585e-06
-3.02009e-06
-1.65524e-06
-6.85297e-07
-1.36191e-07
-0.00125034
-0.00106753
-0.000932445
-0.000818714
-0.000721486
-0.0006373
-0.000563633
-0.000498595
-0.000440735
-0.000388921
-0.000342252
-0.000300001
-0.000261575
-0.000226487
-0.000194338
-0.000164805
-0.000137633
-0.000112646
-8.97554e-05
-6.89923e-05
-5.05574e-05
-3.4863e-05
-2.2458e-05
-1.3664e-05
-8.1283e-06
-4.89596e-06
-2.94592e-06
-1.61794e-06
-6.7008e-07
-1.33162e-07
-0.00122095
-0.00103652
-0.000906536
-0.000796781
-0.000702711
-0.00062108
-0.000549514
-0.000486228
-0.000429848
-0.000379297
-0.000333715
-0.000292408
-0.00025481
-0.000220454
-0.000188959
-0.000160016
-0.000133386
-0.000108906
-8.6504e-05
-6.62287e-05
-4.83002e-05
-3.31418e-05
-2.12794e-05
-1.29611e-05
-7.76103e-06
-4.71679e-06
-2.85604e-06
-1.57234e-06
-6.51434e-07
-1.2945e-07
-0.00118645
-0.0010006
-0.000876503
-0.000771312
-0.000680855
-0.000602147
-0.000532993
-0.000471727
-0.00041706
-0.000367974
-0.000323659
-0.000283456
-0.000246827
-0.00021333
-0.000182604
-0.000154358
-0.000128369
-0.000104493
-8.2674e-05
-6.29846e-05
-4.56667e-05
-3.11529e-05
-1.9934e-05
-1.21671e-05
-7.34746e-06
-4.51307e-06
-2.75212e-06
-1.51908e-06
-6.29603e-07
-1.25105e-07
-0.00114618
-0.00096017
-0.000842902
-0.000742773
-0.000656267
-0.000580765
-0.000514272
-0.00045525
-0.000402497
-0.00035506
-0.000312175
-0.000273222
-0.000237694
-0.000205176
-0.000175328
-0.00014788
-0.000122628
-9.94481e-05
-7.83073e-05
-5.93027e-05
-4.2701e-05
-2.89396e-05
-1.84583e-05
-1.13065e-05
-6.90009e-06
-4.28985e-06
-2.63601e-06
-1.4589e-06
-6.04881e-07
-1.20186e-07
-0.00109625
-0.00091627
-0.000806795
-0.000711785
-0.000629326
-0.000557183
-0.00049353
-0.000436933
-0.000386268
-0.000340642
-0.000299337
-0.000261774
-0.000227475
-0.000196051
-0.000167188
-0.000140637
-0.000116217
-9.38259e-05
-7.34576e-05
-5.52381e-05
-3.94593e-05
-2.65551e-05
-1.68946e-05
-1.04059e-05
-6.43204e-06
-4.05246e-06
-2.50986e-06
-1.39278e-06
-5.77653e-07
-1.14771e-07
-0.00103317
-0.000869649
-0.000764591
-0.00067519
-0.000597737
-0.000529795
-0.000469637
-0.000415969
-0.000367783
-0.00032428
-0.000284813
-0.000248855
-0.000215974
-0.000185813
-0.000158087
-0.000132571
-0.000109111
-8.76304e-05
-6.81531e-05
-5.08374e-05
-3.59992e-05
-2.40567e-05
-1.52881e-05
-9.49302e-06
-5.95725e-06
-3.8075e-06
-2.37717e-06
-1.3227e-06
-5.48834e-07
-1.09059e-07
-0.00102869
-0.000864787
-0.000760932
-0.00067247
-0.000595711
-0.000528277
-0.000468498
-0.000415115
-0.000367147
-0.00032381
-0.00028447
-0.000248608
-0.000215798
-0.000185689
-0.000158
-0.000132511
-0.000109069
-8.76011e-05
-6.81334e-05
-5.08248e-05
-3.59918e-05
-2.40527e-05
-1.52857e-05
-9.49099e-06
-5.95523e-06
-3.80566e-06
-2.37577e-06
-1.32185e-06
-5.48481e-07
-1.08995e-07
-0.00109958
-0.000916434
-0.000806844
-0.000711735
-0.000629234
-0.000557079
-0.000493427
-0.000436834
-0.000386173
-0.000340549
-0.000299245
-0.000261681
-0.000227383
-0.000195962
-0.000167102
-0.000140556
-0.000116142
-9.37591e-05
-7.34e-05
-5.51908e-05
-3.94226e-05
-2.65289e-05
-1.68779e-05
-1.03962e-05
-6.42685e-06
-4.04967e-06
-2.50835e-06
-1.39203e-06
-5.77394e-07
-1.14732e-07
-0.00114853
-0.00096026
-0.000842905
-0.000742709
-0.000656161
-0.000580634
-0.000514127
-0.000455098
-0.000402341
-0.000354905
-0.000312022
-0.000273075
-0.000237555
-0.000205046
-0.000175209
-0.000147772
-0.000122532
-9.93638e-05
-7.82351e-05
-5.92429e-05
-4.26537e-05
-2.89051e-05
-1.84357e-05
-1.12935e-05
-6.89335e-06
-4.28646e-06
-2.63427e-06
-1.45804e-06
-6.04562e-07
-1.20132e-07
-0.00118823
-0.00100066
-0.000876481
-0.000771226
-0.000680727
-0.000601994
-0.000532825
-0.000471553
-0.000416884
-0.000367803
-0.000323494
-0.000283301
-0.000246683
-0.000213198
-0.000182484
-0.00015425
-0.000128273
-0.000104408
-8.26012e-05
-6.29235e-05
-4.56177e-05
-3.11164e-05
-1.99097e-05
-1.21529e-05
-7.34013e-06
-4.50947e-06
-2.7503e-06
-1.51818e-06
-6.29259e-07
-1.25043e-07
-0.00122222
-0.00103655
-0.000906493
-0.000796683
-0.000702577
-0.000620925
-0.000549348
-0.000486058
-0.000429681
-0.000379136
-0.000333563
-0.000292267
-0.000254679
-0.000220335
-0.000188851
-0.000159919
-0.0001333
-0.000108831
-8.64386e-05
-6.61734e-05
-4.82554e-05
-3.31079e-05
-2.12565e-05
-1.29476e-05
-7.75402e-06
-4.71339e-06
-2.85435e-06
-1.57151e-06
-6.51109e-07
-1.29389e-07
-0.00125117
-0.00106752
-0.000932387
-0.000818616
-0.000721361
-0.00063716
-0.000563486
-0.000498447
-0.000440592
-0.000388786
-0.000342125
-0.000299884
-0.000261468
-0.00022639
-0.00019425
-0.000164726
-0.000137563
-0.000112585
-8.97017e-05
-6.89467e-05
-5.05203e-05
-3.48346e-05
-2.24385e-05
-1.36524e-05
-8.12227e-06
-4.89306e-06
-2.9445e-06
-1.61724e-06
-6.69804e-07
-1.33109e-07
-0.00127491
-0.00109313
-0.000953732
-0.000836656
-0.000736779
-0.00065046
-0.000575048
-0.000508562
-0.000449488
-0.000396643
-0.000349091
-0.000306075
-0.00026698
-0.000231304
-0.000198631
-0.000168625
-0.000141022
-0.000115632
-9.23543e-05
-7.12072e-05
-5.2375e-05
-3.62594e-05
-2.34236e-05
-1.42453e-05
-8.43303e-06
-5.04361e-06
-3.019e-06
-1.6547e-06
-6.85084e-07
-1.36149e-07
-0.00129312
-0.00111287
-0.000970138
-0.00085049
-0.000748579
-0.000660623
-0.00058387
-0.00051627
-0.00045626
-0.000402619
-0.000354383
-0.000310775
-0.000271164
-0.000235031
-0.000201952
-0.000171581
-0.000143643
-0.000117943
-9.4368e-05
-7.29266e-05
-5.37908e-05
-3.7353e-05
-2.41855e-05
-1.47072e-05
-8.67593e-06
-5.16071e-06
-3.07633e-06
-1.68332e-06
-6.96735e-07
-1.38468e-07
-0.00130546
-0.00112631
-0.000981276
-0.000859864
-0.000756564
-0.00066749
-0.000589824
-0.000521468
-0.000460822
-0.000406642
-0.000357944
-0.000313937
-0.000273976
-0.000237536
-0.000204184
-0.000173566
-0.000145405
-0.000119495
-9.57221e-05
-7.40842e-05
-5.47462e-05
-3.8094e-05
-2.47046e-05
-1.50235e-05
-8.8427e-06
-5.24085e-06
-3.11527e-06
-1.70265e-06
-7.04594e-07
-1.40032e-07
-0.0013117
-0.00113311
-0.000986909
-0.000864599
-0.000760592
-0.000670952
-0.000592824
-0.000524085
-0.000463118
-0.000408666
-0.000359735
-0.000315526
-0.000275389
-0.000238795
-0.000205305
-0.000174564
-0.00014629
-0.000120276
-9.64026e-05
-7.46664e-05
-5.52274e-05
-3.84681e-05
-2.49674e-05
-1.51842e-05
-8.92756e-06
-5.28156e-06
-3.13496e-06
-1.71239e-06
-7.08551e-07
-1.40819e-07
-0.0013117
-0.00113311
-0.000986909
-0.000864599
-0.000760592
-0.000670952
-0.000592824
-0.000524085
-0.000463118
-0.000408666
-0.000359735
-0.000315526
-0.000275389
-0.000238795
-0.000205305
-0.000174564
-0.00014629
-0.000120276
-9.64026e-05
-7.46664e-05
-5.52274e-05
-3.84681e-05
-2.49674e-05
-1.51842e-05
-8.92756e-06
-5.28156e-06
-3.13496e-06
-1.71239e-06
-7.08551e-07
-1.40819e-07
-0.00130546
-0.00112631
-0.000981276
-0.000859864
-0.000756564
-0.00066749
-0.000589824
-0.000521468
-0.000460822
-0.000406642
-0.000357944
-0.000313937
-0.000273976
-0.000237536
-0.000204184
-0.000173566
-0.000145405
-0.000119495
-9.57221e-05
-7.40842e-05
-5.47462e-05
-3.8094e-05
-2.47046e-05
-1.50235e-05
-8.8427e-06
-5.24085e-06
-3.11527e-06
-1.70265e-06
-7.04594e-07
-1.40032e-07
-0.00129312
-0.00111287
-0.000970138
-0.00085049
-0.000748579
-0.000660623
-0.00058387
-0.00051627
-0.00045626
-0.000402619
-0.000354383
-0.000310775
-0.000271164
-0.000235031
-0.000201952
-0.000171581
-0.000143643
-0.000117943
-9.4368e-05
-7.29266e-05
-5.37908e-05
-3.7353e-05
-2.41855e-05
-1.47072e-05
-8.67593e-06
-5.16071e-06
-3.07633e-06
-1.68332e-06
-6.96735e-07
-1.38468e-07
-0.00127491
-0.00109313
-0.000953732
-0.000836656
-0.000736779
-0.00065046
-0.000575048
-0.000508562
-0.000449488
-0.000396643
-0.000349091
-0.000306075
-0.00026698
-0.000231304
-0.000198631
-0.000168625
-0.000141022
-0.000115632
-9.23543e-05
-7.12072e-05
-5.2375e-05
-3.62594e-05
-2.34236e-05
-1.42453e-05
-8.43303e-06
-5.04361e-06
-3.019e-06
-1.6547e-06
-6.85084e-07
-1.36149e-07
-0.00125117
-0.00106752
-0.000932387
-0.000818616
-0.000721361
-0.00063716
-0.000563486
-0.000498447
-0.000440592
-0.000388786
-0.000342125
-0.000299884
-0.000261468
-0.00022639
-0.00019425
-0.000164726
-0.000137563
-0.000112585
-8.97017e-05
-6.89467e-05
-5.05203e-05
-3.48346e-05
-2.24385e-05
-1.36524e-05
-8.12227e-06
-4.89306e-06
-2.9445e-06
-1.61724e-06
-6.69804e-07
-1.33109e-07
-0.00122222
-0.00103655
-0.000906493
-0.000796683
-0.000702577
-0.000620925
-0.000549348
-0.000486058
-0.000429681
-0.000379136
-0.000333563
-0.000292267
-0.000254679
-0.000220335
-0.000188851
-0.000159919
-0.0001333
-0.000108831
-8.64386e-05
-6.61734e-05
-4.82554e-05
-3.31079e-05
-2.12565e-05
-1.29476e-05
-7.75402e-06
-4.71339e-06
-2.85435e-06
-1.57151e-06
-6.51109e-07
-1.29389e-07
-0.00118823
-0.00100066
-0.000876481
-0.000771226
-0.000680727
-0.000601994
-0.000532825
-0.000471553
-0.000416884
-0.000367803
-0.000323494
-0.000283301
-0.000246683
-0.000213198
-0.000182484
-0.00015425
-0.000128273
-0.000104408
-8.26012e-05
-6.29235e-05
-4.56177e-05
-3.11164e-05
-1.99097e-05
-1.21529e-05
-7.34013e-06
-4.50947e-06
-2.7503e-06
-1.51818e-06
-6.29259e-07
-1.25043e-07
-0.00114853
-0.00096026
-0.000842905
-0.000742709
-0.000656161
-0.000580634
-0.000514127
-0.000455098
-0.000402341
-0.000354905
-0.000312022
-0.000273075
-0.000237555
-0.000205046
-0.000175209
-0.000147772
-0.000122532
-9.93638e-05
-7.82351e-05
-5.92429e-05
-4.26537e-05
-2.89051e-05
-1.84358e-05
-1.12935e-05
-6.89335e-06
-4.28646e-06
-2.63427e-06
-1.45804e-06
-6.04562e-07
-1.20132e-07
-0.00109958
-0.000916434
-0.000806844
-0.000711735
-0.000629234
-0.000557079
-0.000493426
-0.000436834
-0.000386173
-0.000340549
-0.000299245
-0.000261681
-0.000227383
-0.000195962
-0.000167102
-0.000140556
-0.000116142
-9.37591e-05
-7.34e-05
-5.51908e-05
-3.94226e-05
-2.65289e-05
-1.68779e-05
-1.03962e-05
-6.42685e-06
-4.04967e-06
-2.50835e-06
-1.39203e-06
-5.77394e-07
-1.14732e-07
-0.00102869
-0.000864787
-0.000760932
-0.00067247
-0.000595711
-0.000528277
-0.000468498
-0.000415115
-0.000367147
-0.00032381
-0.00028447
-0.000248608
-0.000215798
-0.000185689
-0.000158
-0.000132511
-0.000109069
-8.76011e-05
-6.81334e-05
-5.08248e-05
-3.59918e-05
-2.40527e-05
-1.52857e-05
-9.49099e-06
-5.95523e-06
-3.80566e-06
-2.37577e-06
-1.32185e-06
-5.48481e-07
-1.08995e-07
-0.00103317
-0.000869649
-0.000764591
-0.00067519
-0.000597737
-0.000529795
-0.000469637
-0.000415969
-0.000367783
-0.00032428
-0.000284813
-0.000248855
-0.000215974
-0.000185813
-0.000158087
-0.000132571
-0.000109111
-8.76304e-05
-6.81531e-05
-5.08374e-05
-3.59992e-05
-2.40567e-05
-1.52881e-05
-9.49302e-06
-5.95725e-06
-3.8075e-06
-2.37717e-06
-1.3227e-06
-5.48834e-07
-1.09059e-07
-0.00109625
-0.00091627
-0.000806795
-0.000711785
-0.000629326
-0.000557183
-0.00049353
-0.000436933
-0.000386268
-0.000340642
-0.000299337
-0.000261774
-0.000227475
-0.000196051
-0.000167188
-0.000140637
-0.000116217
-9.38259e-05
-7.34576e-05
-5.52381e-05
-3.94593e-05
-2.65551e-05
-1.68946e-05
-1.04059e-05
-6.43204e-06
-4.05246e-06
-2.50986e-06
-1.39278e-06
-5.77654e-07
-1.14771e-07
-0.00114618
-0.00096017
-0.000842902
-0.000742773
-0.000656267
-0.000580765
-0.000514272
-0.00045525
-0.000402497
-0.00035506
-0.000312175
-0.000273222
-0.000237694
-0.000205176
-0.000175328
-0.00014788
-0.000122628
-9.94481e-05
-7.83073e-05
-5.93027e-05
-4.2701e-05
-2.89396e-05
-1.84583e-05
-1.13065e-05
-6.90009e-06
-4.28985e-06
-2.63601e-06
-1.4589e-06
-6.04881e-07
-1.20186e-07
-0.00118645
-0.0010006
-0.000876503
-0.000771312
-0.000680855
-0.000602147
-0.000532993
-0.000471727
-0.00041706
-0.000367974
-0.000323659
-0.000283456
-0.000246827
-0.00021333
-0.000182604
-0.000154358
-0.000128369
-0.000104493
-8.2674e-05
-6.29846e-05
-4.56667e-05
-3.11529e-05
-1.9934e-05
-1.21671e-05
-7.34746e-06
-4.51307e-06
-2.75212e-06
-1.51908e-06
-6.29603e-07
-1.25105e-07
-0.00122095
-0.00103652
-0.000906536
-0.000796781
-0.000702711
-0.00062108
-0.000549514
-0.000486228
-0.000429848
-0.000379297
-0.000333715
-0.000292408
-0.00025481
-0.000220454
-0.000188959
-0.000160016
-0.000133386
-0.000108906
-8.6504e-05
-6.62287e-05
-4.83002e-05
-3.31418e-05
-2.12794e-05
-1.29611e-05
-7.76103e-06
-4.71679e-06
-2.85604e-06
-1.57234e-06
-6.51434e-07
-1.2945e-07
-0.00125034
-0.00106753
-0.000932445
-0.000818714
-0.000721486
-0.0006373
-0.000563633
-0.000498595
-0.000440735
-0.000388921
-0.000342252
-0.000300001
-0.000261575
-0.000226487
-0.000194338
-0.000164805
-0.000137633
-0.000112646
-8.97554e-05
-6.89923e-05
-5.05574e-05
-3.4863e-05
-2.2458e-05
-1.3664e-05
-8.1283e-06
-4.89596e-06
-2.94592e-06
-1.61794e-06
-6.7008e-07
-1.33162e-07
-0.00127446
-0.00109317
-0.000953798
-0.000836746
-0.000736886
-0.000650576
-0.000575167
-0.00050868
-0.000449601
-0.00039675
-0.000349189
-0.000306165
-0.000267063
-0.000231378
-0.000198698
-0.000168685
-0.000141075
-0.000115678
-9.23949e-05
-7.12417e-05
-5.24033e-05
-3.62811e-05
-2.34386e-05
-1.42543e-05
-8.43773e-06
-5.04585e-06
-3.02009e-06
-1.65524e-06
-6.85297e-07
-1.36191e-07
-0.00129295
-0.00111293
-0.000970205
-0.000850568
-0.000748666
-0.000660713
-0.000583961
-0.000516359
-0.000456344
-0.000402698
-0.000354455
-0.000310841
-0.000271223
-0.000235085
-0.000202
-0.000171623
-0.000143681
-0.000117976
-9.43967e-05
-7.29509e-05
-5.38107e-05
-3.73684e-05
-2.41962e-05
-1.47136e-05
-8.67929e-06
-5.1623e-06
-3.0771e-06
-1.68369e-06
-6.96886e-07
-1.38498e-07
-0.00130549
-0.00112638
-0.000981342
-0.000859931
-0.000756633
-0.00066756
-0.000589894
-0.000521534
-0.000460884
-0.0004067
-0.000357997
-0.000313984
-0.000274018
-0.000237574
-0.000204217
-0.000173596
-0.000145431
-0.000119518
-9.57417e-05
-7.41008e-05
-5.47598e-05
-3.81045e-05
-2.47118e-05
-1.50279e-05
-8.84499e-06
-5.24193e-06
-3.11579e-06
-1.7029e-06
-7.04698e-07
-1.40054e-07
-0.00131183
-0.0011332
-0.000986973
-0.000864659
-0.000760652
-0.000671011
-0.000592881
-0.000524139
-0.000463168
-0.000408712
-0.000359777
-0.000315563
-0.000275423
-0.000238824
-0.000205331
-0.000174586
-0.000146309
-0.000120293
-9.64174e-05
-7.46788e-05
-5.52375e-05
-3.84759e-05
-2.49728e-05
-1.51875e-05
-8.92927e-06
-5.28236e-06
-3.13534e-06
-1.71258e-06
-7.08629e-07
-1.40836e-07
-0.00131183
-0.0011332
-0.000986973
-0.000864659
-0.000760652
-0.000671011
-0.000592881
-0.000524139
-0.000463168
-0.000408712
-0.000359777
-0.000315563
-0.000275423
-0.000238824
-0.000205331
-0.000174586
-0.000146309
-0.000120293
-9.64174e-05
-7.46788e-05
-5.52375e-05
-3.84759e-05
-2.49728e-05
-1.51875e-05
-8.92927e-06
-5.28236e-06
-3.13534e-06
-1.71258e-06
-7.08629e-07
-1.40836e-07
-0.00130549
-0.00112638
-0.000981342
-0.000859931
-0.000756633
-0.00066756
-0.000589894
-0.000521534
-0.000460884
-0.0004067
-0.000357997
-0.000313984
-0.000274018
-0.000237574
-0.000204217
-0.000173596
-0.000145431
-0.000119518
-9.57417e-05
-7.41008e-05
-5.47598e-05
-3.81045e-05
-2.47118e-05
-1.50279e-05
-8.84499e-06
-5.24193e-06
-3.11579e-06
-1.7029e-06
-7.04698e-07
-1.40054e-07
-0.00129295
-0.00111293
-0.000970205
-0.000850568
-0.000748666
-0.000660713
-0.000583961
-0.000516359
-0.000456344
-0.000402698
-0.000354455
-0.000310841
-0.000271223
-0.000235085
-0.000202
-0.000171623
-0.000143681
-0.000117976
-9.43967e-05
-7.29509e-05
-5.38107e-05
-3.73684e-05
-2.41962e-05
-1.47136e-05
-8.67929e-06
-5.1623e-06
-3.0771e-06
-1.68369e-06
-6.96886e-07
-1.38498e-07
-0.00127446
-0.00109317
-0.000953797
-0.000836746
-0.000736885
-0.000650576
-0.000575167
-0.00050868
-0.000449601
-0.00039675
-0.000349189
-0.000306165
-0.000267063
-0.000231378
-0.000198698
-0.000168685
-0.000141075
-0.000115678
-9.23949e-05
-7.12417e-05
-5.24033e-05
-3.62811e-05
-2.34386e-05
-1.42543e-05
-8.43773e-06
-5.04585e-06
-3.02009e-06
-1.65524e-06
-6.85297e-07
-1.36191e-07
-0.00125034
-0.00106753
-0.000932445
-0.000818714
-0.000721486
-0.0006373
-0.000563633
-0.000498595
-0.000440735
-0.000388921
-0.000342252
-0.000300001
-0.000261575
-0.000226487
-0.000194338
-0.000164805
-0.000137633
-0.000112646
-8.97554e-05
-6.89923e-05
-5.05574e-05
-3.4863e-05
-2.2458e-05
-1.3664e-05
-8.1283e-06
-4.89596e-06
-2.94592e-06
-1.61794e-06
-6.7008e-07
-1.33162e-07
-0.00122095
-0.00103652
-0.000906536
-0.000796781
-0.000702711
-0.00062108
-0.000549514
-0.000486228
-0.000429848
-0.000379297
-0.000333715
-0.000292408
-0.00025481
-0.000220454
-0.000188959
-0.000160016
-0.000133386
-0.000108906
-8.6504e-05
-6.62287e-05
-4.83002e-05
-3.31418e-05
-2.12794e-05
-1.29611e-05
-7.76103e-06
-4.71679e-06
-2.85604e-06
-1.57234e-06
-6.51434e-07
-1.2945e-07
-0.00118645
-0.0010006
-0.000876502
-0.000771312
-0.000680854
-0.000602147
-0.000532993
-0.000471727
-0.000417059
-0.000367974
-0.000323659
-0.000283456
-0.000246827
-0.00021333
-0.000182604
-0.000154358
-0.000128369
-0.000104493
-8.2674e-05
-6.29846e-05
-4.56667e-05
-3.11529e-05
-1.9934e-05
-1.21671e-05
-7.34746e-06
-4.51307e-06
-2.75212e-06
-1.51908e-06
-6.29603e-07
-1.25105e-07
-0.00114618
-0.000960171
-0.000842901
-0.000742773
-0.000656267
-0.000580765
-0.000514272
-0.00045525
-0.000402497
-0.00035506
-0.000312175
-0.000273222
-0.000237694
-0.000205176
-0.000175328
-0.00014788
-0.000122628
-9.94481e-05
-7.83073e-05
-5.93027e-05
-4.2701e-05
-2.89396e-05
-1.84583e-05
-1.13065e-05
-6.90009e-06
-4.28985e-06
-2.63601e-06
-1.4589e-06
-6.04881e-07
-1.20186e-07
-0.00109625
-0.000916269
-0.000806794
-0.000711785
-0.000629325
-0.000557183
-0.00049353
-0.000436933
-0.000386268
-0.000340642
-0.000299337
-0.000261774
-0.000227475
-0.000196051
-0.000167188
-0.000140637
-0.000116217
-9.38259e-05
-7.34576e-05
-5.52381e-05
-3.94593e-05
-2.65551e-05
-1.68946e-05
-1.04059e-05
-6.43204e-06
-4.05246e-06
-2.50986e-06
-1.39278e-06
-5.77654e-07
-1.14771e-07
-0.00103317
-0.000869647
-0.00076459
-0.000675189
-0.000597737
-0.000529795
-0.000469637
-0.000415969
-0.000367783
-0.00032428
-0.000284813
-0.000248855
-0.000215974
-0.000185813
-0.000158087
-0.000132571
-0.000109111
-8.76304e-05
-6.81531e-05
-5.08374e-05
-3.59992e-05
-2.40567e-05
-1.52881e-05
-9.49302e-06
-5.95725e-06
-3.8075e-06
-2.37717e-06
-1.3227e-06
-5.48834e-07
-1.09059e-07
-0.00102868
-0.000864785
-0.000760931
-0.00067247
-0.000595711
-0.000528277
-0.000468498
-0.000415115
-0.000367146
-0.00032381
-0.00028447
-0.000248608
-0.000215798
-0.000185689
-0.000158
-0.000132511
-0.000109069
-8.76011e-05
-6.81334e-05
-5.08248e-05
-3.59918e-05
-2.40527e-05
-1.52857e-05
-9.49099e-06
-5.95523e-06
-3.80566e-06
-2.37577e-06
-1.32185e-06
-5.48481e-07
-1.08995e-07
-0.00109959
-0.000916433
-0.000806844
-0.000711735
-0.000629234
-0.000557079
-0.000493426
-0.000436834
-0.000386173
-0.000340548
-0.000299245
-0.000261681
-0.000227383
-0.000195962
-0.000167102
-0.000140556
-0.000116142
-9.37591e-05
-7.34e-05
-5.51908e-05
-3.94226e-05
-2.65289e-05
-1.68779e-05
-1.03962e-05
-6.42685e-06
-4.04967e-06
-2.50835e-06
-1.39203e-06
-5.77394e-07
-1.14732e-07
-0.00114853
-0.00096026
-0.000842905
-0.000742709
-0.000656161
-0.000580634
-0.000514127
-0.000455098
-0.000402341
-0.000354905
-0.000312022
-0.000273075
-0.000237555
-0.000205046
-0.000175209
-0.000147772
-0.000122532
-9.93638e-05
-7.82351e-05
-5.92429e-05
-4.26537e-05
-2.89051e-05
-1.84357e-05
-1.12935e-05
-6.89335e-06
-4.28646e-06
-2.63427e-06
-1.45804e-06
-6.04562e-07
-1.20132e-07
-0.00118823
-0.00100066
-0.00087648
-0.000771226
-0.000680727
-0.000601994
-0.000532825
-0.000471553