/*--------------------------------*- C++ -*----------------------------------*\
| =========                 |                                                 |
| \\      /  F ield         | OpenFOAM: The Open Source CFD Toolbox           |
|  \\    /   O peration     | Version:  2306                                  |
|   \\  /    A nd           | Website:  www.openfoam.com                      |
|    \\/     M anipulation  |                                                 |
\*---------------------------------------------------------------------------*/
FoamFile
{
    version     2.0;
    format      ascii;
    arch        "LSB;label=32;scalar=64";
    class       volScalarField;
    location    "4685";
    object      nut;
}
// * * * * * * * * * * * * * * * * * * * * * * * * * * * * * * * * * * * * * //

dimensions      [0 2 -1 0 0 0 0];

internalField   nonuniform List<scalar> 
2800
(
0.00689045
0.00834232
0.00854166
0.00871293
0.00885585
0.00897188
0.00906261
0.0091294
0.00917332
0.0091951
0.0091951
0.00917332
0.0091294
0.00906261
0.00897188
0.00885585
0.00871292
0.00854165
0.00834226
0.00689045
0.00834295
0.00861171
0.00884429
0.00904144
0.00920499
0.00933692
0.00943938
0.00951433
0.00956336
0.00958759
0.00958759
0.00956336
0.00951433
0.00943938
0.00933692
0.00920499
0.00904144
0.0088443
0.00861171
0.00834289
0.00854244
0.00884462
0.00910142
0.00931725
0.00949483
0.00963695
0.00974643
0.0098259
0.00987756
0.00990298
0.00990298
0.00987756
0.0098259
0.00974643
0.00963695
0.00949483
0.00931725
0.00910143
0.00884464
0.00854244
0.00871375
0.00904193
0.00931746
0.00954617
0.00973222
0.00987948
0.00999169
0.0100723
0.0101242
0.0101496
0.0101496
0.0101242
0.0100723
0.00999169
0.00987948
0.00973222
0.00954617
0.00931746
0.00904193
0.00871375
0.00885667
0.00920553
0.00949515
0.00973236
0.00992263
0.010071
0.0101824
0.0102612
0.0103113
0.0103356
0.0103356
0.0103113
0.0102612
0.0101824
0.010071
0.00992263
0.00973236
0.00949515
0.00920553
0.00885667
0.00897267
0.00933748
0.00963732
0.0098797
0.0100711
0.0102178
0.0103256
0.0104003
0.0104467
0.0104689
0.0104689
0.0104467
0.0104003
0.0103256
0.0102178
0.0100711
0.0098797
0.00963732
0.00933748
0.00897267
0.00906337
0.00943995
0.00974683
0.00999195
0.0101826
0.0103257
0.0104283
0.0104972
0.0105387
0.0105581
0.0105581
0.0105387
0.0104972
0.0104283
0.0103257
0.0101826
0.00999195
0.00974683
0.00943995
0.00906337
0.00913013
0.0095149
0.00982632
0.0100726
0.0102614
0.0104004
0.0104972
0.0105598
0.010596
0.0106121
0.0106121
0.010596
0.0105598
0.0104972
0.0104004
0.0102614
0.0100726
0.00982632
0.0095149
0.00913013
0.00917404
0.00956393
0.00987799
0.0101245
0.0103115
0.0104468
0.0105388
0.010596
0.0106273
0.0106406
0.0106406
0.0106273
0.010596
0.0105388
0.0104468
0.0103115
0.0101245
0.00987799
0.00956393
0.00917404
0.0091958
0.00958816
0.00990342
0.0101499
0.0103358
0.010469
0.0105581
0.0106122
0.0106406
0.0106522
0.0106522
0.0106406
0.0106122
0.0105581
0.010469
0.0103358
0.0101499
0.00990342
0.00958815
0.0091958
0.0091958
0.00958816
0.00990342
0.0101499
0.0103358
0.010469
0.0105581
0.0106122
0.0106406
0.0106522
0.0106522
0.0106406
0.0106122
0.0105581
0.010469
0.0103358
0.0101499
0.00990342
0.00958815
0.0091958
0.00917404
0.00956393
0.00987799
0.0101245
0.0103115
0.0104468
0.0105388
0.010596
0.0106273
0.0106406
0.0106406
0.0106273
0.010596
0.0105388
0.0104468
0.0103115
0.0101245
0.00987799
0.00956393
0.00917404
0.00913013
0.0095149
0.00982632
0.0100726
0.0102614
0.0104004
0.0104972
0.0105598
0.010596
0.0106121
0.0106121
0.010596
0.0105598
0.0104972
0.0104004
0.0102614
0.0100726
0.00982632
0.00951489
0.00913013
0.00906337
0.00943995
0.00974683
0.00999195
0.0101826
0.0103257
0.0104283
0.0104972
0.0105387
0.0105581
0.0105581
0.0105387
0.0104972
0.0104283
0.0103257
0.0101826
0.00999195
0.00974683
0.00943995
0.00906336
0.00897267
0.00933749
0.00963732
0.0098797
0.0100711
0.0102178
0.0103256
0.0104003
0.0104467
0.0104689
0.0104689
0.0104467
0.0104003
0.0103256
0.0102178
0.0100711
0.0098797
0.00963732
0.00933748
0.00897267
0.00885667
0.00920553
0.00949515
0.00973236
0.00992263
0.010071
0.0101824
0.0102612
0.0103113
0.0103356
0.0103356
0.0103113
0.0102612
0.0101824
0.010071
0.00992263
0.00973235
0.00949515
0.00920553
0.00885666
0.00871375
0.00904193
0.00931746
0.00954618
0.00973222
0.00987948
0.00999168
0.0100723
0.0101242
0.0101496
0.0101496
0.0101242
0.0100723
0.00999168
0.00987948
0.00973222
0.00954617
0.00931746
0.00904193
0.00871375
0.00854244
0.00884464
0.00910143
0.00931725
0.00949483
0.00963695
0.00974642
0.0098259
0.00987756
0.00990298
0.00990298
0.00987756
0.0098259
0.00974642
0.00963694
0.00949483
0.00931725
0.00910143
0.00884464
0.00854244
0.00834289
0.0086117
0.0088443
0.00904144
0.00920499
0.00933692
0.00943938
0.00951432
0.00956336
0.00958758
0.00958758
0.00956335
0.00951432
0.00943938
0.00933692
0.00920499
0.00904144
0.0088443
0.0086117
0.00834289
0.00689045
0.00834226
0.00854164
0.00871292
0.00885585
0.00897188
0.0090626
0.0091294
0.00917332
0.0091951
0.0091951
0.00917332
0.0091294
0.0090626
0.00897188
0.00885585
0.00871292
0.00854164
0.00834226
0.00689045
0.00770968
0.0071943
0.00666158
0.00612519
0.00559365
0.00507355
0.00457009
0.00408733
0.00362835
0.00319539
0.00278997
0.002413
0.00206492
0.00174574
0.00145516
0.00119263
0.000957469
0.000748909
0.000566227
0.000408896
0.000276832
0.000170696
9.18595e-05
4.08807e-05
1.42562e-05
3.708e-06
6.69427e-07
7.12259e-08
2.98519e-09
1.77257e-11
0.0079386
0.00741373
0.00687691
0.00633591
0.00579798
0.00526966
0.00475644
0.00426272
0.00379192
0.00334659
0.00292853
0.00253889
0.00217827
0.00184685
0.00154444
0.00127059
0.00102466
0.00080594
0.000613691
0.000447354
0.000306764
0.000192489
0.000105977
4.84034e-05
1.72799e-05
4.56626e-06
8.30813e-07
8.86332e-08
3.71689e-09
2.20731e-11
0.00812491
0.00760301
0.00706548
0.00652157
0.00597877
0.00544382
0.0049225
0.00441954
0.00393866
0.00348271
0.00305371
0.00265301
0.0022814
0.00193917
0.00162626
0.00134229
0.0010867
0.000858787
0.000657856
0.000483327
0.00033498
0.000213298
0.00011975
5.5969e-05
2.04202e-05
5.47919e-06
1.00461e-06
1.07458e-07
4.50871e-09
2.67762e-11
0.00828245
0.00776465
0.00722812
0.00668275
0.00613647
0.00559634
0.00506845
0.00455782
0.00406848
0.00360348
0.00316508
0.00275483
0.00237364
0.00202195
0.00169978
0.00140687
0.00114269
0.00090661
0.000697943
0.00051611
0.000360852
0.00023258
0.000132742
6.32989e-05
2.35544e-05
6.4117e-06
1.18438e-06
1.27019e-07
5.33238e-09
3.16684e-11
0.00841418
0.00790054
0.0073657
0.0068198
0.00627113
0.00572705
0.00519394
0.00467707
0.00418072
0.00370816
0.00326184
0.00284346
0.00245409
0.00209428
0.00176415
0.0014635
0.00119189
0.000948722
0.000733332
0.000545149
0.000383885
0.000249891
0.000144577
7.01271e-05
2.65514e-05
7.32263e-06
1.3621e-06
1.46443e-07
6.15109e-09
3.65311e-11
0.00852169
0.00801197
0.00747907
0.00693319
0.00638293
0.00583591
0.00529872
0.00477689
0.00427487
0.00379614
0.00334331
0.00291822
0.00252205
0.00215548
0.00181869
0.00151157
0.00123372
0.000984587
0.000763535
0.00057
0.000403676
0.000264864
0.000154933
7.62117e-05
2.92824e-05
8.16851e-06
1.52892e-06
1.6475e-07
6.92352e-09
4.11187e-11
0.0086062
0.00809993
0.00756891
0.00702334
0.00647207
0.00592291
0.00538266
0.004857
0.00435057
0.00386699
0.00340901
0.00297859
0.00257701
0.00220502
0.00186291
0.00155058
0.00126772
0.00101378
0.000788159
0.000590304
0.000419895
0.000277197
0.000163539
8.13426e-05
3.16279e-05
8.90668e-06
1.67586e-06
1.80936e-07
7.60697e-09
4.5178e-11
0.00866869
0.0081652
0.00763578
0.00709062
0.00653873
0.0059881
0.00544565
0.00491721
0.00440754
0.00392038
0.00345858
0.00302418
0.00261856
0.00224252
0.0018964
0.00158017
0.00129352
0.00103596
0.000806893
0.000605778
0.000432285
0.000286654
0.000170181
8.53464e-05
3.34843e-05
9.49843e-06
1.79457e-06
1.9405e-07
8.16111e-09
4.84691e-11
0.00870994
0.00820838
0.0076801
0.0071353
0.00658307
0.00603152
0.00548766
0.00495741
0.00444561
0.00395609
0.00349176
0.00305472
0.00264641
0.00226767
0.00191888
0.00160004
0.00131086
0.00105088
0.00081951
0.00061621
0.000440652
0.000293056
0.000174699
8.80903e-05
3.47696e-05
9.91194e-06
1.87798e-06
2.03285e-07
8.55159e-09
5.07882e-11
0.00873043
0.00822986
0.00770219
0.00715758
0.00660521
0.00605322
0.00550867
0.00497753
0.00446468
0.00397398
0.00350839
0.00307004
0.00266039
0.0022803
0.00193017
0.00161002
0.00131958
0.00105838
0.000825857
0.000621461
0.000444867
0.000296287
0.000176985
8.94848e-05
3.54268e-05
1.01246e-05
1.92103e-06
2.08057e-07
8.75341e-09
5.19868e-11
0.00873043
0.00822986
0.00770219
0.00715758
0.00660521
0.00605322
0.00550867
0.00497753
0.00446468
0.00397398
0.00350839
0.00307004
0.00266039
0.0022803
0.00193017
0.00161002
0.00131958
0.00105838
0.000825857
0.000621461
0.000444867
0.000296287
0.000176985
8.94848e-05
3.54268e-05
1.01246e-05
1.92103e-06
2.08057e-07
8.75341e-09
5.19868e-11
0.00870994
0.00820838
0.0076801
0.00713529
0.00658307
0.00603152
0.00548766
0.00495741
0.00444561
0.00395609
0.00349176
0.00305472
0.00264641
0.00226767
0.00191888
0.00160004
0.00131086
0.00105088
0.00081951
0.00061621
0.000440652
0.000293056
0.000174699
8.80903e-05
3.47696e-05
9.91194e-06
1.87798e-06
2.03285e-07
8.55159e-09
5.07882e-11
0.00866869
0.0081652
0.00763578
0.00709062
0.00653873
0.0059881
0.00544565
0.00491721
0.00440754
0.00392038
0.00345858
0.00302418
0.00261856
0.00224252
0.0018964
0.00158017
0.00129352
0.00103596
0.000806893
0.000605778
0.000432285
0.000286654
0.000170181
8.53464e-05
3.34843e-05
9.49843e-06
1.79457e-06
1.9405e-07
8.16111e-09
4.84691e-11
0.00860619
0.00809993
0.00756891
0.00702334
0.00647207
0.00592291
0.00538266
0.004857
0.00435057
0.00386699
0.00340901
0.00297859
0.00257701
0.00220502
0.00186291
0.00155058
0.00126772
0.00101378
0.000788159
0.000590304
0.000419895
0.000277197
0.000163539
8.13426e-05
3.16279e-05
8.90667e-06
1.67586e-06
1.80936e-07
7.60697e-09
4.5178e-11
0.00852169
0.00801197
0.00747907
0.00693319
0.00638293
0.00583591
0.00529872
0.00477689
0.00427487
0.00379614
0.00334331
0.00291822
0.00252205
0.00215548
0.00181869
0.00151157
0.00123372
0.000984587
0.000763535
0.00057
0.000403676
0.000264864
0.000154933
7.62117e-05
2.92824e-05
8.16851e-06
1.52892e-06
1.6475e-07
6.92351e-09
4.11187e-11
0.00841418
0.00790054
0.0073657
0.0068198
0.00627113
0.00572705
0.00519394
0.00467707
0.00418072
0.00370816
0.00326184
0.00284346
0.00245409
0.00209428
0.00176415
0.0014635
0.00119189
0.000948722
0.000733332
0.000545149
0.000383885
0.000249891
0.000144577
7.01271e-05
2.65514e-05
7.32263e-06
1.3621e-06
1.46443e-07
6.15109e-09
3.65311e-11
0.00828245
0.00776465
0.00722812
0.00668275
0.00613647
0.00559634
0.00506845
0.00455782
0.00406848
0.00360348
0.00316508
0.00275483
0.00237364
0.00202195
0.00169978
0.00140687
0.00114269
0.00090661
0.000697943
0.00051611
0.000360852
0.00023258
0.000132742
6.32989e-05
2.35544e-05
6.4117e-06
1.18438e-06
1.27019e-07
5.33238e-09
3.16684e-11
0.0081249
0.007603
0.00706547
0.00652157
0.00597877
0.00544382
0.0049225
0.00441954
0.00393866
0.00348271
0.00305371
0.00265301
0.0022814
0.00193917
0.00162626
0.00134229
0.0010867
0.000858787
0.000657856
0.000483327
0.00033498
0.000213298
0.00011975
5.5969e-05
2.04202e-05
5.47919e-06
1.00461e-06
1.07458e-07
4.50871e-09
2.67762e-11
0.0079386
0.00741373
0.00687691
0.00633591
0.00579798
0.00526966
0.00475644
0.00426272
0.00379192
0.00334659
0.00292853
0.00253889
0.00217827
0.00184685
0.00154444
0.00127059
0.00102466
0.00080594
0.000613691
0.000447354
0.000306764
0.000192489
0.000105977
4.84034e-05
1.72799e-05
4.56626e-06
8.30813e-07
8.86332e-08
3.71689e-09
2.20731e-11
0.00770967
0.00719429
0.00666158
0.00612519
0.00559365
0.00507355
0.00457009
0.00408733
0.00362835
0.00319539
0.00278997
0.002413
0.00206492
0.00174574
0.00145516
0.00119263
0.000957469
0.000748909
0.000566227
0.000408896
0.000276832
0.000170696
9.18595e-05
4.08807e-05
1.42562e-05
3.708e-06
6.69427e-07
7.12259e-08
2.98519e-09
1.77257e-11
0.00770727
0.0071926
0.00666024
0.0061241
0.00559279
0.00507291
0.00456965
0.00408708
0.00362826
0.00319543
0.00279011
0.00241322
0.00206518
0.00174601
0.00145543
0.00119289
0.000957714
0.000749134
0.00056643
0.000409076
0.000276987
0.000170821
9.19491e-05
4.09333e-05
1.42793e-05
3.7152e-06
6.70911e-07
7.14018e-08
2.99326e-09
1.77728e-11
0.00793679
0.00741188
0.00687518
0.0063343
0.00579648
0.00526827
0.00475514
0.0042615
0.00379078
0.00334552
0.00292753
0.00253796
0.00217741
0.00184607
0.00154374
0.00126997
0.00102414
0.000805497
0.000613327
0.000447064
0.000306543
0.000192331
0.000105876
4.83497e-05
1.72586e-05
4.56034e-06
8.29743e-07
8.85244e-08
3.71263e-09
2.2045e-11
0.00812316
0.00760108
0.00706345
0.00651952
0.00597673
0.00544181
0.00492055
0.00441765
0.00393687
0.00348102
0.00305213
0.00265156
0.00228008
0.00193799
0.00162521
0.00134137
0.00108591
0.000858118
0.000657299
0.000482875
0.000334626
0.000213037
0.000119575
5.58724e-05
2.03798e-05
5.46741e-06
1.00239e-06
1.07222e-07
4.49903e-09
2.6716e-11
0.0082808
0.00776279
0.00722608
0.00668061
0.00613429
0.00559416
0.00506632
0.00455577
0.00406652
0.00360165
0.00316339
0.00275327
0.00237223
0.00202068
0.00169867
0.00140589
0.00114184
0.000905888
0.000697338
0.000515615
0.00036046
0.000232287
0.000132543
6.31851e-05
2.35052e-05
6.39697e-06
1.18155e-06
1.26714e-07
5.3197e-09
3.15905e-11
0.00841267
0.00789883
0.00736382
0.0068178
0.00626908
0.00572501
0.00519194
0.00467515
0.0041789
0.00370646
0.00326027
0.00284203
0.00245279
0.00209312
0.00176312
0.0014626
0.00119111
0.000948052
0.000732769
0.000544686
0.000383517
0.000249613
0.000144386
7.00152e-05
2.65017e-05
7.30742e-06
1.35913e-06
1.4612e-07
6.13758e-09
3.64484e-11
0.00852032
0.00801046
0.00747742
0.00693145
0.00638115
0.00583415
0.00529702
0.00477526
0.00427334
0.00379472
0.003342
0.00291702
0.00252098
0.00215451
0.00181784
0.00151082
0.00123307
0.000984028
0.000763066
0.000569613
0.000403367
0.000264629
0.000154769
7.61146e-05
2.92383e-05
8.15475e-06
1.52619e-06
1.64453e-07
6.91098e-09
4.10421e-11
0.00860498
0.00809862
0.00756751
0.0070219
0.00647061
0.00592149
0.00538129
0.00485571
0.00434936
0.00386588
0.003408
0.00297767
0.00257618
0.00220429
0.00186225
0.00155001
0.00126722
0.00101335
0.000787802
0.000590011
0.000419661
0.000277018
0.000163413
8.1267e-05
3.15929e-05
8.89558e-06
1.67365e-06
1.80691e-07
7.59663e-09
4.51146e-11
0.0086676
0.00816407
0.0076346
0.00708944
0.00653757
0.00598698
0.0054446
0.00491623
0.00440664
0.00391956
0.00345784
0.00302351
0.00261797
0.00224199
0.00189594
0.00157976
0.00129317
0.00103566
0.000806645
0.000605574
0.000432122
0.000286529
0.000170093
8.52928e-05
3.34592e-05
9.49036e-06
1.79294e-06
1.93869e-07
8.15341e-09
4.84216e-11
0.00870893
0.00820737
0.0076791
0.00713431
0.00658213
0.00603064
0.00548685
0.00495667
0.00444494
0.00395549
0.00349122
0.00305425
0.002646
0.00226731
0.00191856
0.00159977
0.00131063
0.00105068
0.000819345
0.000616075
0.000440544
0.000292973
0.00017464
8.80545e-05
3.47526e-05
9.90643e-06
1.87686e-06
2.0316e-07
8.54619e-09
5.07546e-11
0.00872947
0.00822893
0.00770128
0.00715671
0.00660439
0.00605246
0.00550798
0.00497691
0.00446413
0.0039735
0.00350796
0.00306967
0.00266006
0.00228002
0.00192993
0.00160982
0.00131941
0.00105824
0.000825736
0.000621363
0.000444789
0.000296227
0.000176942
8.94589e-05
3.54144e-05
1.01205e-05
1.92019e-06
2.07964e-07
8.74934e-09
5.19612e-11
0.00872947
0.00822893
0.00770128
0.00715671
0.00660439
0.00605246
0.00550798
0.00497691
0.00446413
0.0039735
0.00350796
0.00306967
0.00266006
0.00228002
0.00192993
0.00160982
0.00131941
0.00105824
0.000825736
0.000621363
0.000444789
0.000296227
0.000176942
8.94589e-05
3.54144e-05
1.01205e-05
1.92019e-06
2.07964e-07
8.74934e-09
5.19612e-11
0.00870893
0.00820737
0.0076791
0.00713431
0.00658213
0.00603064
0.00548685
0.00495667
0.00444494
0.00395549
0.00349122
0.00305425
0.002646
0.00226731
0.00191856
0.00159977
0.00131063
0.00105068
0.000819345
0.000616075
0.000440544
0.000292973
0.00017464
8.80545e-05
3.47526e-05
9.90642e-06
1.87686e-06
2.0316e-07
8.54619e-09
5.07546e-11
0.0086676
0.00816407
0.0076346
0.00708944
0.00653757
0.00598698
0.0054446
0.00491623
0.00440664
0.00391956
0.00345784
0.00302351
0.00261797
0.00224199
0.00189594
0.00157976
0.00129317
0.00103566
0.000806645
0.000605574
0.000432122
0.000286529
0.000170093
8.52928e-05
3.34592e-05
9.49036e-06
1.79294e-06
1.93869e-07
8.15341e-09
4.84216e-11
0.00860498
0.00809862
0.00756751
0.0070219
0.00647061
0.00592149
0.00538129
0.00485571
0.00434936
0.00386588
0.003408
0.00297767
0.00257618
0.00220429
0.00186225
0.00155001
0.00126722
0.00101335
0.000787802
0.000590011
0.000419661
0.000277018
0.000163413
8.12669e-05
3.15929e-05
8.89558e-06
1.67365e-06
1.80691e-07
7.59663e-09
4.51146e-11
0.00852033
0.00801046
0.00747742
0.00693145
0.00638115
0.00583415
0.00529702
0.00477526
0.00427334
0.00379472
0.003342
0.00291702
0.00252098
0.00215451
0.00181784
0.00151082
0.00123307
0.000984028
0.000763066
0.000569613
0.000403367
0.000264629
0.000154769
7.61146e-05
2.92383e-05
8.15475e-06
1.52619e-06
1.64453e-07
6.91098e-09
4.10421e-11
0.00841267
0.00789883
0.00736382
0.00681781
0.00626908
0.00572501
0.00519194
0.00467515
0.0041789
0.00370646
0.00326027
0.00284203
0.00245279
0.00209312
0.00176312
0.0014626
0.00119111
0.000948052
0.000732769
0.000544686
0.000383517
0.000249613
0.000144386
7.00152e-05
2.65017e-05
7.30742e-06
1.35913e-06
1.4612e-07
6.13758e-09
3.64484e-11
0.0082808
0.00776279
0.00722608
0.00668061
0.00613429
0.00559417
0.00506632
0.00455577
0.00406652
0.00360165
0.00316339
0.00275327
0.00237223
0.00202068
0.00169867
0.00140589
0.00114184
0.000905888
0.000697338
0.000515615
0.00036046
0.000232287
0.000132543
6.31851e-05
2.35052e-05
6.39697e-06
1.18155e-06
1.26714e-07
5.3197e-09
3.15905e-11
0.00812316
0.00760108
0.00706346
0.00651952
0.00597673
0.00544181
0.00492055
0.00441765
0.00393687
0.00348102
0.00305213
0.00265156
0.00228008
0.00193799
0.00162521
0.00134137
0.00108591
0.000858118
0.000657299
0.000482875
0.000334626
0.000213037
0.000119575
5.58724e-05
2.03798e-05
5.46741e-06
1.00239e-06
1.07222e-07
4.49903e-09
2.6716e-11
0.00793679
0.00741188
0.00687518
0.0063343
0.00579648
0.00526827
0.00475514
0.0042615
0.00379078
0.00334552
0.00292753
0.00253796
0.00217741
0.00184607
0.00154374
0.00126997
0.00102414
0.000805497
0.000613327
0.000447064
0.000306543
0.000192331
0.000105876
4.83497e-05
1.72586e-05
4.56034e-06
8.29743e-07
8.85244e-08
3.71263e-09
2.2045e-11
0.00770728
0.0071926
0.00666025
0.0061241
0.00559279
0.00507291
0.00456965
0.00408708
0.00362827
0.00319543
0.00279011
0.00241322
0.00206518
0.00174601
0.00145543
0.00119289
0.000957714
0.000749134
0.00056643
0.000409076
0.000276987
0.000170821
9.19491e-05
4.09333e-05
1.42793e-05
3.7152e-06
6.70911e-07
7.14018e-08
2.99326e-09
1.77728e-11
0.00770968
0.0071943
0.00666158
0.00612519
0.00559365
0.00507355
0.00457009
0.00408733
0.00362835
0.00319539
0.00278997
0.002413
0.00206492
0.00174574
0.00145516
0.00119263
0.000957469
0.000748909
0.000566227
0.000408896
0.000276832
0.000170696
9.18595e-05
4.08807e-05
1.42562e-05
3.708e-06
6.69427e-07
7.12259e-08
2.98519e-09
1.77257e-11
0.0079386
0.00741373
0.00687691
0.00633591
0.00579798
0.00526966
0.00475644
0.00426272
0.00379192
0.00334659
0.00292853
0.00253889
0.00217827
0.00184685
0.00154444
0.00127059
0.00102466
0.00080594
0.000613691
0.000447354
0.000306764
0.000192489
0.000105977
4.84034e-05
1.72799e-05
4.56626e-06
8.30813e-07
8.86332e-08
3.71689e-09
2.20731e-11
0.00812491
0.00760301
0.00706548
0.00652157
0.00597877
0.00544382
0.0049225
0.00441954
0.00393866
0.00348271
0.00305371
0.00265301
0.0022814
0.00193917
0.00162626
0.00134229
0.0010867
0.000858787
0.000657856
0.000483327
0.00033498
0.000213298
0.00011975
5.5969e-05
2.04202e-05
5.47919e-06
1.00461e-06
1.07458e-07
4.50871e-09
2.67762e-11
0.00828245
0.00776465
0.00722812
0.00668275
0.00613647
0.00559634
0.00506845
0.00455782
0.00406848
0.00360348
0.00316508
0.00275483
0.00237364
0.00202195
0.00169978
0.00140687
0.00114269
0.00090661
0.000697943
0.00051611
0.000360852
0.00023258
0.000132742
6.32989e-05
2.35544e-05
6.4117e-06
1.18438e-06
1.27019e-07
5.33238e-09
3.16684e-11
0.00841418
0.00790054
0.0073657
0.0068198
0.00627113
0.00572705
0.00519394
0.00467707
0.00418072
0.00370816
0.00326184
0.00284346
0.00245409
0.00209428
0.00176415
0.0014635
0.00119189
0.000948722
0.000733332
0.000545149
0.000383885
0.000249891
0.000144577
7.01271e-05
2.65514e-05
7.32263e-06
1.3621e-06
1.46443e-07
6.15109e-09
3.65311e-11
0.00852169
0.00801197
0.00747907
0.00693319
0.00638293
0.00583591
0.00529872
0.00477689
0.00427487
0.00379614
0.00334331
0.00291822
0.00252205
0.00215548
0.00181869
0.00151157
0.00123372
0.000984587
0.000763535
0.00057
0.000403676
0.000264864
0.000154933
7.62117e-05
2.92824e-05
8.16851e-06
1.52892e-06
1.6475e-07
6.92351e-09
4.11187e-11
0.0086062
0.00809993
0.00756891
0.00702334
0.00647207
0.00592291
0.00538266
0.004857
0.00435057
0.00386699
0.00340901
0.00297859
0.00257701
0.00220502
0.00186291
0.00155058
0.00126772
0.00101378
0.000788159
0.000590304
0.000419895
0.000277197
0.000163539
8.13426e-05
3.16279e-05
8.90668e-06
1.67586e-06
1.80936e-07
7.60697e-09
4.5178e-11
0.0086687
0.0081652
0.00763578
0.00709062
0.00653873
0.0059881
0.00544565
0.00491721
0.00440754
0.00392038
0.00345858
0.00302418
0.00261856
0.00224252
0.0018964
0.00158017
0.00129352
0.00103596
0.000806893
0.000605778
0.000432285
0.000286654
0.000170181
8.53464e-05
3.34843e-05
9.49843e-06
1.79457e-06
1.9405e-07
8.16111e-09
4.84691e-11
0.00870994
0.00820838
0.0076801
0.0071353
0.00658307
0.00603152
0.00548766
0.00495741
0.00444561
0.00395609
0.00349176
0.00305472
0.00264641
0.00226767
0.00191888
0.00160004
0.00131086
0.00105088
0.00081951
0.00061621
0.000440652
0.000293056
0.000174699
8.80903e-05
3.47696e-05
9.91194e-06
1.87798e-06
2.03285e-07
8.55159e-09
5.07882e-11
0.00873043
0.00822987
0.00770219
0.00715758
0.00660521
0.00605322
0.00550867
0.00497753
0.00446468
0.00397398
0.00350839
0.00307004
0.00266039
0.0022803
0.00193017
0.00161002
0.00131958
0.00105838
0.000825857
0.000621461
0.000444867
0.000296287
0.000176985
8.94848e-05
3.54268e-05
1.01246e-05
1.92103e-06
2.08057e-07
8.75341e-09
5.19868e-11
0.00873043
0.00822987
0.00770219
0.00715758
0.00660521
0.00605322
0.00550867
0.00497753
0.00446468
0.00397398
0.00350839
0.00307004
0.00266039
0.0022803
0.00193017
0.00161002
0.00131958
0.00105838
0.000825857
0.000621461
0.000444867
0.000296287
0.000176985
8.94848e-05
3.54268e-05
1.01246e-05
1.92103e-06
2.08057e-07
8.75341e-09
5.19868e-11
0.00870994
0.00820838
0.0076801
0.0071353
0.00658307
0.00603152
0.00548766
0.00495741
0.00444561
0.00395609
0.00349176
0.00305472
0.00264641
0.00226767
0.00191888
0.00160004
0.00131086
0.00105088
0.00081951
0.00061621
0.000440652
0.000293056
0.000174699
8.80903e-05
3.47696e-05
9.91194e-06
1.87798e-06
2.03285e-07
8.55159e-09
5.07882e-11
0.0086687
0.0081652
0.00763578
0.00709062
0.00653873
0.0059881
0.00544565
0.00491721
0.00440754
0.00392038
0.00345858
0.00302418
0.00261856
0.00224252
0.0018964
0.00158017
0.00129352
0.00103596
0.000806894
0.000605778
0.000432285
0.000286654
0.000170181
8.53464e-05
3.34843e-05
9.49843e-06
1.79457e-06
1.9405e-07
8.16111e-09
4.84691e-11
0.0086062
0.00809993
0.00756891
0.00702334
0.00647207
0.00592291
0.00538266
0.004857
0.00435057
0.00386699
0.00340901
0.00297859
0.00257701
0.00220502
0.00186291
0.00155058
0.00126772
0.00101378
0.000788159
0.000590304
0.000419895
0.000277197
0.000163539
8.13426e-05
3.16279e-05
8.90667e-06
1.67586e-06
1.80936e-07
7.60697e-09
4.5178e-11
0.00852169
0.00801197
0.00747907
0.00693319
0.00638293
0.00583591
0.00529872
0.00477689
0.00427487
0.00379614
0.00334331
0.00291822
0.00252205
0.00215548
0.00181869
0.00151157
0.00123372
0.000984587
0.000763535
0.00057
0.000403676
0.000264864
0.000154933
7.62117e-05
2.92824e-05
8.16851e-06
1.52892e-06
1.6475e-07
6.92351e-09
4.11187e-11
0.00841418
0.00790054
0.0073657
0.0068198
0.00627113
0.00572705
0.00519394
0.00467707
0.00418072
0.00370816
0.00326184
0.00284346
0.00245409
0.00209428
0.00176415
0.0014635
0.00119189
0.000948722
0.000733332
0.000545149
0.000383885
0.000249891
0.000144577
7.01271e-05
2.65514e-05
7.32263e-06
1.3621e-06
1.46443e-07
6.15109e-09
3.65311e-11
0.00828245
0.00776465
0.00722812
0.00668275
0.00613647
0.00559634
0.00506845
0.00455782
0.00406848
0.00360348
0.00316508
0.00275483
0.00237364
0.00202195
0.00169978
0.00140687
0.00114269
0.00090661
0.000697943
0.00051611
0.000360852
0.00023258
0.000132742
6.32989e-05
2.35544e-05
6.4117e-06
1.18438e-06
1.27019e-07
5.33238e-09
3.16684e-11
0.00812491
0.00760301
0.00706547
0.00652157
0.00597877
0.00544382
0.0049225
0.00441954
0.00393866
0.00348271
0.00305371
0.00265301
0.0022814
0.00193917
0.00162626
0.00134229
0.0010867
0.000858787
0.000657856
0.000483327
0.00033498
0.000213298
0.00011975
5.5969e-05
2.04202e-05
5.47919e-06
1.00461e-06
1.07458e-07
4.50871e-09
2.67762e-11
0.00793862
0.00741372
0.00687691
0.0063359
0.00579797
0.00526966
0.00475644
0.00426272
0.00379192
0.00334659
0.00292853
0.00253889
0.00217827
0.00184685
0.00154444
0.00127059
0.00102466
0.00080594
0.000613691
0.000447354
0.000306764
0.000192489
0.000105977
4.84034e-05
1.72799e-05
4.56625e-06
8.30813e-07
8.86332e-08
3.71689e-09
2.20731e-11
0.00770961
0.00719427
0.00666157
0.00612518
0.00559364
0.00507355
0.00457009
0.00408733
0.00362835
0.00319539
0.00278996
0.002413
0.00206492
0.00174574
0.00145516
0.00119263
0.000957469
0.000748909
0.000566227
0.000408896
0.000276832
0.000170696
9.18595e-05
4.08807e-05
1.42562e-05
3.708e-06
6.69427e-07
7.12258e-08
2.98519e-09
1.77257e-11
0.00770721
0.00719257
0.00666023
0.00612409
0.00559278
0.0050729
0.00456965
0.00408708
0.00362826
0.00319543
0.00279011
0.00241322
0.00206518
0.00174601
0.00145543
0.00119289
0.000957713
0.000749134
0.00056643
0.000409076
0.000276986
0.000170821
9.19491e-05
4.09333e-05
1.42793e-05
3.7152e-06
6.70911e-07
7.14017e-08
2.99326e-09
1.77728e-11
0.0079368
0.00741187
0.00687517
0.00633429
0.00579647
0.00526826
0.00475514
0.0042615
0.00379078
0.00334552
0.00292753
0.00253796
0.00217741
0.00184607
0.00154374
0.00126997
0.00102414
0.000805497
0.000613327
0.000447064
0.000306543
0.000192331
0.000105876
4.83497e-05
1.72586e-05
4.56034e-06
8.29743e-07
8.85243e-08
3.71263e-09
2.2045e-11
0.00812317
0.00760108
0.00706345
0.00651952
0.00597672
0.00544181
0.00492054
0.00441765
0.00393687
0.00348102
0.00305213
0.00265156
0.00228008
0.00193799
0.00162521
0.00134137
0.00108591
0.000858118
0.000657299
0.000482875
0.000334626
0.000213036
0.000119575
5.58723e-05
2.03798e-05
5.46741e-06
1.00239e-06
1.07222e-07
4.49902e-09
2.6716e-11
0.0082808
0.00776279
0.00722608
0.00668061
0.00613429
0.00559416
0.00506632
0.00455577
0.00406652
0.00360165
0.00316339
0.00275327
0.00237223
0.00202068
0.00169867
0.00140589
0.00114184
0.000905888
0.000697338
0.000515615
0.00036046
0.000232287
0.000132543
6.31851e-05
2.35051e-05
6.39697e-06
1.18155e-06
1.26714e-07
5.3197e-09
3.15905e-11
0.00841267
0.00789883
0.00736382
0.00681781
0.00626908
0.00572501
0.00519194
0.00467515
0.0041789
0.00370646
0.00326027
0.00284203
0.00245279
0.00209312
0.00176312
0.0014626
0.00119111
0.000948052
0.000732769
0.000544686
0.000383517
0.000249613
0.000144386
7.00152e-05
2.65017e-05
7.30741e-06
1.35913e-06
1.4612e-07
6.13758e-09
3.64484e-11
0.00852033
0.00801046
0.00747742
0.00693145
0.00638116
0.00583415
0.00529702
0.00477526
0.00427334
0.00379472
0.003342
0.00291702
0.00252098
0.00215451
0.00181784
0.00151082
0.00123307
0.000984029
0.000763066
0.000569613
0.000403367
0.000264629
0.000154769
7.61146e-05
2.92383e-05
8.15475e-06
1.52619e-06
1.64453e-07
6.91098e-09
4.10421e-11
0.00860498
0.00809862
0.00756751
0.0070219
0.00647061
0.00592149
0.00538129
0.00485571
0.00434936
0.00386588
0.003408
0.00297767
0.00257618
0.00220429
0.00186225
0.00155001
0.00126722
0.00101335
0.000787802
0.000590011
0.000419661
0.000277018
0.000163413
8.12669e-05
3.15929e-05
8.89558e-06
1.67365e-06
1.80691e-07
7.59663e-09
4.51146e-11
0.0086676
0.00816407
0.00763461
0.00708944
0.00653757
0.00598698
0.0054446
0.00491623
0.00440664
0.00391956
0.00345784
0.00302351
0.00261797
0.00224199
0.00189594
0.00157976
0.00129317
0.00103566
0.000806645
0.000605574
0.000432122
0.000286529
0.000170093
8.52928e-05
3.34592e-05
9.49036e-06
1.79294e-06
1.93869e-07
8.15341e-09
4.84216e-11
0.00870893
0.00820737
0.0076791
0.00713431
0.00658213
0.00603064
0.00548685
0.00495667
0.00444494
0.00395549
0.00349122
0.00305425
0.002646
0.00226731
0.00191856
0.00159977
0.00131063
0.00105068
0.000819345
0.000616075
0.000440544
0.000292973
0.00017464
8.80545e-05
3.47526e-05
9.90642e-06
1.87686e-06
2.0316e-07
8.54619e-09
5.07546e-11
0.00872947
0.00822893
0.00770128
0.00715671
0.00660439
0.00605246
0.00550798
0.00497691
0.00446413
0.0039735
0.00350796
0.00306967
0.00266006
0.00228002
0.00192993
0.00160982
0.00131941
0.00105824
0.000825736
0.000621363
0.000444789
0.000296227
0.000176942
8.94589e-05
3.54144e-05
1.01205e-05
1.92019e-06
2.07964e-07
8.74934e-09
5.19612e-11
0.00872947
0.00822893
0.00770128
0.00715671
0.00660439
0.00605246
0.00550798
0.00497691
0.00446413
0.0039735
0.00350796
0.00306967
0.00266006
0.00228002
0.00192993
0.00160982
0.00131941
0.00105824
0.000825736
0.000621363
0.000444789
0.000296227
0.000176942
8.94589e-05
3.54144e-05
1.01205e-05
1.92019e-06
2.07964e-07
8.74934e-09
5.19612e-11
0.00870893
0.00820737
0.0076791
0.00713431
0.00658213
0.00603064
0.00548685
0.00495667
0.00444494
0.00395549
0.00349122
0.00305425
0.002646
0.00226731
0.00191856
0.00159977
0.00131063
0.00105068
0.000819345
0.000616075
0.000440544
0.000292973
0.00017464
8.80545e-05
3.47526e-05
9.90642e-06
1.87686e-06
2.0316e-07
8.54619e-09
5.07546e-11
0.0086676
0.00816407
0.00763461
0.00708944
0.00653757
0.00598698
0.0054446
0.00491623
0.00440664
0.00391956
0.00345784
0.00302351
0.00261797
0.00224199
0.00189594
0.00157976
0.00129317
0.00103566
0.000806645
0.000605574
0.000432122
0.000286529
0.000170093
8.52928e-05
3.34592e-05
9.49036e-06
1.79294e-06
1.93869e-07
8.15341e-09
4.84216e-11
0.00860498
0.00809862
0.00756751
0.0070219
0.00647061
0.00592149
0.00538129
0.00485571
0.00434936
0.00386588
0.003408
0.00297767
0.00257618