/*--------------------------------*- C++ -*----------------------------------*\
| =========                 |                                                 |
| \\      /  F ield         | OpenFOAM: The Open Source CFD Toolbox           |
|  \\    /   O peration     | Version:  2306                                  |
|   \\  /    A nd           | Website:  www.openfoam.com                      |
|    \\/     M anipulation  |                                                 |
\*---------------------------------------------------------------------------*/
FoamFile
{
    version     2.0;
    format      ascii;
    arch        "LSB;label=32;scalar=64";
    class       volScalarField;
    location    "4685";
    object      omega;
}
// * * * * * * * * * * * * * * * * * * * * * * * * * * * * * * * * * * * * * //

dimensions      [0 0 -1 0 0 0 0];

internalField   nonuniform List<scalar> 
2800
(
4.23325
3.99435
3.80323
3.64175
3.50774
3.39911
3.31411
3.25142
3.21012
3.18962
3.18962
3.21012
3.25142
3.31411
3.39911
3.50775
3.64176
3.80324
3.99438
4.23325
3.99322
3.73404
3.51789
3.33763
3.18857
3.06779
2.97329
2.9036
2.85768
2.83488
2.83488
2.85768
2.9036
2.97329
3.06779
3.18857
3.33763
3.51789
3.73404
3.99325
3.80209
3.51741
3.28098
3.08485
2.9235
2.79319
2.69141
2.61645
2.56709
2.5426
2.5426
2.56709
2.61645
2.69142
2.79319
2.9235
3.08485
3.28098
3.5174
3.80209
3.64076
3.33701
3.08459
2.87558
2.70423
2.56633
2.45897
2.38009
2.32826
2.30257
2.30257
2.32826
2.38009
2.45897
2.56633
2.70423
2.87558
3.08459
3.33701
3.64076
3.50692
3.18797
2.92314
2.70408
2.52488
2.38114
2.26964
2.18803
2.13459
2.10816
2.10816
2.13459
2.18803
2.26964
2.38114
2.52488
2.70408
2.92314
3.18797
3.50692
3.39844
3.06726
2.79282
2.56612
2.38105
2.2331
2.11885
2.03565
1.98144
1.95473
1.95473
1.98144
2.03565
2.11885
2.2331
2.38105
2.56612
2.79282
3.06726
3.39844
3.31357
2.97283
2.69107
2.45874
2.26951
2.1188
2.00304
1.9193
1.86511
1.83854
1.83854
1.86511
1.9193
2.00304
2.1188
2.26951
2.45874
2.69107
2.97283
3.31357
3.25098
2.9032
2.61613
2.37985
2.18788
2.03557
1.91927
1.83579
1.78222
1.75615
1.75615
1.78222
1.83579
1.91927
2.03557
2.18788
2.37985
2.61613
2.9032
3.25098
3.20975
2.85733
2.5668
2.32803
2.13443
1.98134
1.86505
1.7822
1.72951
1.70408
1.70408
1.72951
1.7822
1.86505
1.98134
2.13443
2.32803
2.5668
2.85733
3.20975
3.18927
2.83456
2.54232
2.30235
2.108
1.95462
1.83848
1.75612
1.70407
1.67909
1.67909
1.70407
1.75612
1.83848
1.95462
2.108
2.30235
2.54232
2.83456
3.18927
3.18927
2.83456
2.54232
2.30235
2.108
1.95462
1.83848
1.75612
1.70407
1.67909
1.67909
1.70407
1.75612
1.83848
1.95462
2.108
2.30235
2.54232
2.83456
3.18927
3.20975
2.85733
2.5668
2.32803
2.13443
1.98134
1.86505
1.7822
1.72951
1.70408
1.70408
1.72951
1.7822
1.86505
1.98134
2.13443
2.32803
2.5668
2.85733
3.20975
3.25098
2.9032
2.61613
2.37985
2.18788
2.03557
1.91927
1.83579
1.78222
1.75615
1.75615
1.78222
1.83579
1.91927
2.03557
2.18788
2.37985
2.61613
2.9032
3.25098
3.31357
2.97283
2.69107
2.45874
2.26951
2.1188
2.00304
1.9193
1.86511
1.83854
1.83854
1.86511
1.9193
2.00304
2.1188
2.26951
2.45874
2.69107
2.97283
3.31357
3.39844
3.06726
2.79282
2.56612
2.38105
2.2331
2.11885
2.03565
1.98144
1.95473
1.95473
1.98144
2.03565
2.11885
2.2331
2.38105
2.56612
2.79282
3.06726
3.39844
3.50692
3.18797
2.92314
2.70408
2.52488
2.38114
2.26964
2.18803
2.13459
2.10816
2.10816
2.13459
2.18803
2.26964
2.38114
2.52488
2.70408
2.92314
3.18797
3.50692
3.64076
3.33701
3.08459
2.87558
2.70423
2.56633
2.45897
2.38009
2.32826
2.30257
2.30257
2.32826
2.38009
2.45897
2.56634
2.70423
2.87558
3.08459
3.33701
3.64076
3.80209
3.5174
3.28098
3.08485
2.9235
2.79319
2.69142
2.61645
2.56709
2.5426
2.5426
2.56709
2.61645
2.69142
2.79319
2.9235
3.08485
3.28098
3.5174
3.80209
3.99325
3.73404
3.51789
3.33763
3.18857
3.06779
2.97329
2.9036
2.85768
2.83488
2.83488
2.85768
2.9036
2.97329
3.06779
3.18857
3.33763
3.51789
3.73404
3.99325
4.23325
3.99438
3.80324
3.64176
3.50775
3.39911
3.31411
3.25142
3.21012
3.18962
3.18962
3.21012
3.25142
3.31411
3.39911
3.50775
3.64176
3.80324
3.99438
4.23325
4.60147
5.16895
5.81767
6.55469
7.39371
8.35286
9.45475
10.7273
12.2049
13.9305
15.9573
18.3528
21.2022
24.6145
28.7299
33.7301
39.8529
47.4117
56.8272
68.6839
83.8575
103.861
131.839
175.22
251.976
406.072
757.73
1723.74
5393.76
31126.1
4.36591
4.92072
5.54257
6.24541
7.04401
7.95592
9.00261
10.2104
11.6119
13.2474
15.1675
17.4358
20.1332
23.3629
27.2585
31.9932
37.7943
44.9626
53.902
65.171
79.5919
98.54
124.789
164.885
235.025
375.549
697.119
1582.53
4949.26
28557.5
4.18091
4.71508
5.31419
5.98958
6.75557
7.62912
8.63078
9.78569
11.1248
12.6866
14.5191
16.6828
19.2548
22.3336
26.0467
30.56
36.0919
42.932
51.4701
62.2437
76.0353
94.1192
118.992
156.499
221.365
350.931
648.096
1468.15
4589.06
26476.7
4.02897
4.54509
5.12443
5.77698
6.51617
7.35825
8.32295
9.43436
10.7221
12.2231
13.9832
16.0605
18.5287
21.4824
25.044
29.3733
34.6811
41.2475
49.4505
59.8107
73.0798
90.458
114.233
149.703
210.383
331.14
608.581
1375.8
4298.12
24796.3
3.90417
4.40567
4.96854
5.60223
6.31948
7.13589
8.07046
9.14641
10.3923
11.8437
13.5447
15.5514
17.9348
20.7862
24.2239
28.4027
33.5267
39.8685
47.7958
57.8157
70.6564
87.4626
110.366
144.242
201.627
315.372
577.027
1301.95
4065.34
23452.1
3.80343
4.29333
4.84296
5.46147
6.16112
6.95697
7.86745
8.91507
10.1275
11.5392
13.193
15.1432
17.4588
20.2283
23.5669
27.625
32.6016
38.7629
46.4684
56.2143
68.7106
85.0611
107.283
139.926
194.759
303.017
552.255
1243.89
3882.29
22395.1
3.72474
4.20574
4.7451
5.35184
6.03785
6.8178
7.70964
8.73534
9.92192
11.3029
12.9202
14.8267
17.0898
19.7961
23.0578
27.0224
31.8848
37.9059
45.439
54.9717
67.2003
83.1988
104.9
136.616
189.527
293.617
533.38
1199.61
3742.6
21588.5
3.66676
4.14126
4.67313
5.27127
5.9473
6.71563
7.59386
8.60355
9.77122
11.1298
12.7204
14.595
16.8198
19.4797
22.6854
26.5816
31.3603
37.2787
44.6854
54.0616
66.0938
81.8351
103.161
134.212
185.747
286.836
519.749
1167.59
3641.6
21005.4
3.62857
4.09884
4.62579
5.2183
5.88782
6.64854
7.51786
8.51708
9.67238
11.0163
12.5894
14.4432
16.6428
19.2725
22.4414
26.2928
31.0167
36.8677
44.1915
53.465
65.3683
80.9413
102.022
132.646
183.294
282.439
510.903
1146.8
3575.99
20626.6
3.60962
4.07778
4.60231
5.19204
5.85833
6.6153
7.48021
8.47425
9.62344
10.9601
12.5246
14.368
16.5553
19.17
22.3207
26.1499
30.8467
36.6644
43.9471
53.1697
65.0092
80.499
101.46
131.873
182.086
280.276
506.551
1136.57
3543.7
20440.2
3.60962
4.07778
4.60231
5.19204
5.85833
6.6153
7.48021
8.47425
9.62344
10.9601
12.5246
14.368
16.5553
19.17
22.3207
26.1499
30.8467
36.6644
43.9471
53.1697
65.0092
80.499
101.46
131.873
182.086
280.276
506.551
1136.57
3543.7
20440.2
3.62857
4.09884
4.62579
5.2183
5.88782
6.64854
7.51786
8.51708
9.67238
11.0163
12.5894
14.4432
16.6428
19.2725
22.4414
26.2928
31.0167
36.8677
44.1915
53.465
65.3683
80.9413
102.022
132.646
183.294
282.439
510.903
1146.8
3575.99
20626.6
3.66676
4.14126
4.67313
5.27127
5.9473
6.71563
7.59386
8.60355
9.77122
11.1298
12.7204
14.595
16.8198
19.4797
22.6854
26.5816
31.3603
37.2787
44.6854
54.0616
66.0938
81.8351
103.161
134.212
185.747
286.836
519.749
1167.59
3641.6
21005.4
3.72474
4.20574
4.7451
5.35184
6.03785
6.8178
7.70964
8.73534
9.92192
11.3029
12.9202
14.8267
17.0898
19.7961
23.0578
27.0224
31.8848
37.9059
45.439
54.9717
67.2003
83.1988
104.9
136.616
189.527
293.617
533.38
1199.61
3742.6
21588.5
3.80343
4.29333
4.84296
5.46147
6.16112
6.95697
7.86745
8.91507
10.1275
11.5392
13.193
15.1432
17.4588
20.2283
23.5669
27.625
32.6016
38.7629
46.4684
56.2143
68.7106
85.0611
107.283
139.926
194.759
303.017
552.255
1243.89
3882.29
22395.1
3.90418
4.40567
4.96854
5.60223
6.31948
7.13589
8.07046
9.14641
10.3923
11.8437
13.5447
15.5514
17.9348
20.7862
24.2239
28.4027
33.5267
39.8685
47.7958
57.8157
70.6564
87.4626
110.366
144.242
201.627
315.372
577.027
1301.95
4065.34
23452.1
4.02897
4.54509
5.12443
5.77698
6.51617
7.35825
8.32295
9.43436
10.7221
12.2231
13.9832
16.0605
18.5287
21.4824
25.044
29.3733
34.6811
41.2475
49.4505
59.8107
73.0798
90.458
114.233
149.703
210.383
331.14
608.581
1375.8
4298.12
24796.3
4.18091
4.71508
5.31419
5.98958
6.75557
7.62912
8.63078
9.78569
11.1248
12.6866
14.5191
16.6828
19.2548
22.3336
26.0467
30.56
36.0919
42.932
51.4701
62.2437
76.0353
94.1192
118.992
156.499
221.365
350.931
648.096
1468.15
4589.06
26476.7
4.36591
4.92072
5.54257
6.24541
7.04401
7.95592
9.00261
10.2104
11.6119
13.2474
15.1675
17.4358
20.1332
23.3629
27.2585
31.9932
37.7943
44.9626
53.902
65.171
79.5919
98.54
124.789
164.885
235.025
375.549
697.119
1582.53
4949.26
28557.5
4.60147
5.16895
5.81767
6.55469
7.39371
8.35286
9.45475
10.7273
12.2049
13.9305
15.9573
18.3528
21.2022
24.6145
28.7299
33.7301
39.8529
47.4117
56.8272
68.6839
83.8575
103.861
131.839
175.22
251.976
406.072
757.73
1723.74
5393.76
31126.1
4.60524
5.17345
5.82294
6.5608
7.40069
8.36068
9.46336
10.7366
12.2149
13.941
15.9683
18.3643
21.2142
24.6271
28.7435
33.7452
39.8702
47.4323
56.8525
68.716
83.8991
103.916
131.91
175.31
252.089
406.219
757.945
1724.13
5394.81
31136.2
4.36725
4.9227
5.54497
6.2482
7.04719
7.9595
9.0066
10.2149
11.6169
13.2532
15.1743
17.4439
20.143
23.3749
27.2732
32.0113
37.8167
44.9902
53.9359
65.2127
79.6433
98.6044
124.873
165.003
235.205
375.858
697.711
1583.88
4953.49
28585.2
4.18186
4.71628
5.3157
5.99147
6.75788
7.63195
8.63423
9.7899
11.13
12.6929
14.5268
16.6922
19.2663
22.3476
26.0636
30.5805
36.1166
42.9619
51.5063
62.2878
76.089
94.1861
119.078
156.622
221.559
351.274
648.769
1469.71
4593.96
26507.3
4.02975
4.54597
5.12557
5.77849
6.51814
7.36078
8.32615
9.43837
10.7271
12.2292
13.9907
16.0695
18.5396
21.4955
25.0597
29.3923
34.7039
41.275
49.4837
59.851
73.129
90.519
114.312
149.814
210.56
331.455
609.205
1377.26
4302.7
24824.4
3.90484
4.40639
4.96947
5.60349
6.32116
7.13808
8.07325
9.14992
10.3967
11.8489
13.5511
15.5591
17.944
20.7973
24.2372
28.4186
33.5458
39.8915
47.8236
57.8495
70.6975
87.5136
110.432
144.334
201.773
315.633
577.546
1303.16
4069.18
23475.3
3.80402
4.29395
4.84373
5.46251
6.16249
6.95876
7.86973
8.91791
10.131
11.5434
13.1981
15.1493
17.466
20.237
23.5772
27.6374
32.6165
38.7807
46.49
56.2406
68.7426
85.1007
107.333
139.996
194.87
303.216
552.653
1244.83
3885.25
22412.9
3.72527
4.20627
4.74574
5.35267
6.03893
6.81919
7.71139
8.73749
9.92454
11.306
12.924
14.8312
17.0951
19.8024
23.0654
27.0314
31.8956
37.9189
45.4547
54.9908
67.2236
83.2275
104.937
136.667
189.606
293.759
533.665
1200.28
3744.73
21601.3
3.66726
4.14174
4.67366
5.27192
5.94813
6.71666
7.59514
8.60511
9.7731
11.132
12.7231
14.5982
16.8235
19.4842
22.6906
26.5878
31.3677
37.2876
44.6961
54.0746
66.1097
81.8548
103.186
134.247
185.801
286.931
519.941
1168.05
3643.04
21014
3.62905
4.09927
4.62624
5.21882
5.88845
6.64932
7.51881
8.51821
9.67373
11.0179
12.5913
14.4454
16.6454
19.2756
22.445
26.297
31.0218
36.8738
44.1987
53.4738
65.3791
80.9546
102.039
132.669
183.329
282.502
511.03
1147.1
3576.95
20632.4
3.61008
4.07819
4.60272
5.19249
5.85886
6.61593
7.48098
8.47516
9.62451
10.9614
12.5261
14.3697
16.5573
19.1723
22.3234
26.1532
30.8505
36.669
43.9525
53.1763
65.0172
80.5089
101.472
131.89
182.113
280.323
506.645
1136.79
3544.41
20444.5
3.61008
4.07819
4.60272
5.19249
5.85886
6.61593
7.48098
8.47516
9.62451
10.9614
12.5261
14.3697
16.5573
19.1723
22.3234
26.1532
30.8505
36.669
43.9525
53.1763
65.0172
80.5089
101.472
131.89
182.113
280.323
506.645
1136.79
3544.41
20444.5
3.62905
4.09927
4.62624
5.21882
5.88845
6.64932
7.51881
8.51821
9.67373
11.0179
12.5913
14.4454
16.6454
19.2756
22.445
26.297
31.0218
36.8738
44.1987
53.4738
65.3791
80.9546
102.039
132.669
183.329
282.502
511.03
1147.1
3576.95
20632.4
3.66726
4.14174
4.67366
5.27192
5.94813
6.71666
7.59514
8.60511
9.7731
11.132
12.7231
14.5982
16.8235
19.4842
22.6906
26.5878
31.3677
37.2876
44.6961
54.0746
66.1097
81.8548
103.186
134.247
185.801
286.931
519.941
1168.05
3643.04
21014
3.72527
4.20627
4.74574
5.35267
6.03893
6.81919
7.71139
8.73749
9.92454
11.306
12.924
14.8312
17.0951
19.8024
23.0654
27.0314
31.8956
37.9189
45.4547
54.9908
67.2236
83.2275
104.937
136.667
189.606
293.759
533.665
1200.28
3744.73
21601.3
3.80402
4.29395
4.84373
5.46251
6.16249
6.95876
7.86973
8.91791
10.131
11.5434
13.1981
15.1493
17.466
20.237
23.5772
27.6374
32.6165
38.7807
46.49
56.2406
68.7426
85.1007
107.333
139.996
194.87
303.216
552.653
1244.83
3885.25
22412.9
3.90484
4.40639
4.96947
5.60349
6.32116
7.13808
8.07325
9.14992
10.3967
11.8489
13.5511
15.5591
17.944
20.7973
24.2372
28.4186
33.5458
39.8915
47.8236
57.8495
70.6975
87.5136
110.432
144.334
201.773
315.633
577.546
1303.16
4069.18
23475.3
4.02974
4.54597
5.12557
5.77849
6.51814
7.36078
8.32615
9.43837
10.7271
12.2292
13.9907
16.0695
18.5396
21.4955
25.0597
29.3923
34.7039
41.275
49.4837
59.851
73.129
90.519
114.312
149.814
210.56
331.455
609.205
1377.26
4302.7
24824.4
4.18186
4.71628
5.3157
5.99147
6.75788
7.63195
8.63423
9.7899
11.13
12.6929
14.5268
16.6922
19.2663
22.3476
26.0636
30.5805
36.1166
42.9619
51.5063
62.2878
76.089
94.1861
119.078
156.622
221.559
351.274
648.769
1469.71
4593.96
26507.3
4.36725
4.9227
5.54497
6.2482
7.04719
7.9595
9.0066
10.2149
11.6169
13.2532
15.1743
17.4439
20.143
23.3749
27.2732
32.0113
37.8167
44.9902
53.9359
65.2127
79.6433
98.6044
124.873
165.003
235.205
375.858
697.711
1583.88
4953.49
28585.2
4.60524
5.17345
5.82294
6.5608
7.40069
8.36068
9.46336
10.7366
12.2149
13.941
15.9683
18.3643
21.2142
24.6271
28.7435
33.7452
39.8702
47.4323
56.8525
68.716
83.8991
103.916
131.91
175.31
252.089
406.219
757.945
1724.13
5394.81
31136.2
4.60147
5.16895
5.81767
6.55469
7.39371
8.35286
9.45475
10.7273
12.2049
13.9305
15.9573
18.3528
21.2022
24.6145
28.7299
33.7301
39.8529
47.4117
56.8272
68.6839
83.8575
103.861
131.839
175.22
251.976
406.072
757.73
1723.74
5393.76
31126.1
4.36591
4.92072
5.54257
6.24541
7.04401
7.95592
9.00261
10.2104
11.6119
13.2474
15.1675
17.4358
20.1332
23.3629
27.2585
31.9932
37.7943
44.9626
53.902
65.171
79.5919
98.54
124.789
164.885
235.025
375.549
697.119
1582.53
4949.26
28557.5
4.18091
4.71508
5.31419
5.98958
6.75557
7.62912
8.63078
9.78569
11.1248
12.6866
14.5191
16.6828
19.2548
22.3336
26.0467
30.56
36.0919
42.932
51.4701
62.2437
76.0353
94.1192
118.992
156.499
221.365
350.931
648.096
1468.15
4589.06
26476.7
4.02897
4.54509
5.12443
5.77698
6.51617
7.35825
8.32295
9.43436
10.7221
12.2231
13.9832
16.0605
18.5287
21.4824
25.044
29.3733
34.6811
41.2475
49.4505
59.8107
73.0798
90.458
114.233
149.703
210.383
331.14
608.581
1375.8
4298.12
24796.3
3.90417
4.40567
4.96854
5.60223
6.31948
7.13589
8.07046
9.14641
10.3923
11.8437
13.5447
15.5514
17.9348
20.7862
24.2239
28.4027
33.5267
39.8685
47.7958
57.8157
70.6564
87.4626
110.366
144.242
201.627
315.372
577.027
1301.95
4065.34
23452.1
3.80342
4.29333
4.84296
5.46147
6.16112
6.95697
7.86745
8.91507
10.1275
11.5392
13.193
15.1432
17.4588
20.2283
23.5669
27.625
32.6016
38.7629
46.4684
56.2143
68.7106
85.0611
107.283
139.926
194.759
303.017
552.255
1243.89
3882.29
22395.1
3.72474
4.20574
4.7451
5.35184
6.03785
6.8178
7.70964
8.73534
9.92192
11.3029
12.9202
14.8267
17.0898
19.7961
23.0578
27.0224
31.8848
37.9059
45.439
54.9717
67.2003
83.1988
104.9
136.616
189.527
293.617
533.38
1199.61
3742.6
21588.5
3.66676
4.14126
4.67313
5.27127
5.9473
6.71563
7.59386
8.60355
9.77122
11.1298
12.7204
14.595
16.8198
19.4797
22.6854
26.5816
31.3603
37.2787
44.6854
54.0616
66.0938
81.8351
103.161
134.212
185.747
286.836
519.749
1167.59
3641.6
21005.4
3.62857
4.09884
4.62579
5.2183
5.88782
6.64854
7.51786
8.51708
9.67238
11.0163
12.5894
14.4432
16.6428
19.2725
22.4414
26.2928
31.0167
36.8677
44.1915
53.465
65.3683
80.9413
102.022
132.646
183.294
282.439
510.903
1146.8
3575.99
20626.6
3.60962
4.07778
4.60231
5.19204
5.85833
6.6153
7.48021
8.47425
9.62344
10.9601
12.5246
14.368
16.5553
19.17
22.3207
26.1499
30.8467
36.6644
43.9471
53.1697
65.0092
80.499
101.46
131.873
182.086
280.276
506.551
1136.57
3543.7
20440.2
3.60962
4.07778
4.60231
5.19204
5.85833
6.6153
7.48021
8.47425
9.62344
10.9601
12.5246
14.368
16.5553
19.17
22.3207
26.1499
30.8467
36.6644
43.9471
53.1697
65.0092
80.499
101.46
131.873
182.086
280.276
506.551
1136.57
3543.7
20440.2
3.62857
4.09884
4.62579
5.2183
5.88782
6.64854
7.51786
8.51708
9.67238
11.0163
12.5894
14.4432
16.6428
19.2725
22.4414
26.2928
31.0167
36.8677
44.1915
53.465
65.3683
80.9413
102.022
132.646
183.294
282.439
510.903
1146.8
3575.99
20626.6
3.66676
4.14126
4.67313
5.27127
5.9473
6.71563
7.59386
8.60355
9.77122
11.1298
12.7204
14.595
16.8198
19.4797
22.6854
26.5816
31.3603
37.2787
44.6854
54.0616
66.0938
81.8351
103.161
134.212
185.747
286.836
519.749
1167.59
3641.6
21005.4
3.72474
4.20574
4.7451
5.35184
6.03785
6.8178
7.70964
8.73534
9.92192
11.3029
12.9202
14.8267
17.0898
19.7961
23.0578
27.0224
31.8848
37.9059
45.439
54.9717
67.2003
83.1988
104.9
136.616
189.527
293.617
533.38
1199.61
3742.6
21588.5
3.80342
4.29333
4.84296
5.46147
6.16112
6.95697
7.86745
8.91507
10.1275
11.5392
13.193
15.1432
17.4588
20.2283
23.5669
27.625
32.6016
38.7629
46.4684
56.2143
68.7106
85.0611
107.283
139.926
194.759
303.017
552.255
1243.89
3882.29
22395.1
3.90417
4.40567
4.96854
5.60223
6.31948
7.13589
8.07046
9.14641
10.3923
11.8437
13.5447
15.5514
17.9348
20.7862
24.2239
28.4027
33.5267
39.8685
47.7958
57.8157
70.6564
87.4626
110.366
144.242
201.627
315.372
577.027
1301.95
4065.34
23452.1
4.02897
4.54509
5.12443
5.77698
6.51617
7.35825
8.32295
9.43436
10.7221
12.2231
13.9832
16.0605
18.5287
21.4824
25.044
29.3733
34.6811
41.2475
49.4505
59.8107
73.0798
90.458
114.233
149.703
210.383
331.14
608.581
1375.8
4298.12
24796.3
4.18091
4.71508
5.31419
5.98959
6.75557
7.62912
8.63078
9.78569
11.1248
12.6866
14.5191
16.6828
19.2548
22.3336
26.0467
30.56
36.0919
42.932
51.4701
62.2437
76.0353
94.1192
118.992
156.499
221.365
350.931
648.096
1468.15
4589.06
26476.7
4.3659
4.92072
5.54258
6.24541
7.04401
7.95593
9.00261
10.2104
11.6119
13.2474
15.1675
17.4358
20.1332
23.3629
27.2585
31.9932
37.7943
44.9626
53.902
65.171
79.5919
98.54
124.789
164.885
235.025
375.549
697.119
1582.53
4949.26
28557.5
4.60151
5.16897
5.81768
6.55469
7.39372
8.35287
9.45475
10.7273
12.2049
13.9305
15.9573
18.3528
21.2022
24.6145
28.7299
33.7301
39.8529
47.4117
56.8272
68.6839
83.8575
103.861
131.839
175.22
251.976
406.072
757.73
1723.74
5393.76
31126.1
4.60528
5.17347
5.82296
6.56081
7.40069
8.36068
9.46336
10.7366
12.2149
13.941
15.9683
18.3643
21.2142
24.6271
28.7435
33.7452
39.8702
47.4323
56.8525
68.716
83.8991
103.916
131.91
175.31
252.089
406.219
757.945
1724.13
5394.81
31136.2
4.36725
4.92271
5.54498
6.24821
7.04719
7.9595
9.0066
10.2149
11.6169
13.2532
15.1743
17.4439
20.143
23.3749
27.2732
32.0113
37.8167
44.9902
53.9359
65.2127
79.6433
98.6044
124.873
165.003
235.205
375.858
697.711
1583.88
4953.49
28585.2
4.18186
4.71628
5.31571
5.99147
6.75789
7.63195
8.63423
9.7899
11.13
12.6929
14.5268
16.6922
19.2663
22.3476
26.0636
30.5805
36.1166
42.9619
51.5063
62.2878
76.089
94.186
119.078
156.622
221.559
351.274
648.769
1469.71
4593.96
26507.3
4.02974
4.54597
5.12557
5.77849
6.51814
7.36078
8.32615
9.43837
10.7271
12.2292
13.9907
16.0695
18.5396
21.4955
25.0597
29.3923
34.7039
41.275
49.4837
59.851
73.129
90.519
114.312
149.814
210.56
331.455
609.205
1377.26
4302.7
24824.4
3.90484
4.40639
4.96947
5.60349
6.32116
7.13808
8.07326
9.14992
10.3967
11.8489
13.5511
15.5591
17.944
20.7973
24.2372
28.4186
33.5458
39.8915
47.8236
57.8495
70.6975
87.5136
110.432
144.334
201.773
315.633
577.546
1303.16
4069.18
23475.3
3.80401
4.29395
4.84373
5.46251
6.16249
6.95877
7.86973
8.91791
10.131
11.5434
13.1981
15.1493
17.466
20.237
23.5772
27.6374
32.6165
38.7807
46.49
56.2406
68.7426
85.1007
107.333
139.996
194.87
303.216
552.653
1244.83
3885.25
22412.9
3.72527
4.20627
4.74574
5.35267
6.03893
6.81919
7.71139
8.73749
9.92454
11.306
12.924
14.8312
17.0951
19.8024
23.0654
27.0314
31.8956
37.9189
45.4547
54.9908
67.2236
83.2275
104.937
136.667
189.606
293.759
533.665
1200.28
3744.73
21601.3
3.66726
4.14174
4.67366
5.27192
5.94813
6.71666
7.59514
8.60511
9.7731
11.132
12.7231
14.5982
16.8235
19.4842
22.6906
26.5878
31.3677
37.2876
44.6961
54.0746
66.1097
81.8548
103.186
134.247
185.801
286.931
519.941
1168.05
3643.04
21014
3.62905
4.09927
4.62624
5.21882
5.88845
6.64932
7.51881
8.51821
9.67373
11.0179
12.5913
14.4454
16.6454
19.2756
22.445
26.297
31.0218
36.8738
44.1987
53.4738
65.3791
80.9546
102.039
132.669
183.329
282.502
511.03
1147.1
3576.95
20632.4
3.61008
4.07819
4.60272
5.19249
5.85886
6.61594
7.48098
8.47516
9.62451
10.9614
12.5261
14.3697
16.5573
19.1723
22.3234
26.1532
30.8505
36.669
43.9525
53.1763
65.0172
80.5089
101.472
131.89
182.113
280.323
506.645
1136.79
3544.41
20444.5
3.61008
4.07819
4.60272
5.19249
5.85886
6.61594
7.48098
8.47516
9.62451
10.9614
12.5261
14.3697
16.5573
19.1723
22.3234
26.1532
30.8505
36.669
43.9525
53.1763
65.0172
80.5089
101.472
131.89
182.113
280.323
506.645
1136.79
3544.41
20444.5
3.62905
4.09927
4.62624
5.21882
5.88845
6.64932
7.51881
8.51821
9.67373
11.0179
12.5913
14.4454
16.6454
19.2756
22.445
26.297
31.0218
36.8738
44.1987
53.4738
65.3791
80.9546
102.039
132.669
183.329
282.502
511.03
1147.1
3576.95
20632.4
3.66726
4.14174
4.67366
5.27192
5.94813
6.71666
7.59514
8.60511
9.7731
11.132
12.7231
14.5982
16.8235
19.4842
22.6906
26.5878
31.3677
37.2876
44.6961
54.0746
66.1097
81.8548
103.186
134.247
185.801
286.931
519.941
1168.05
3643.04
21014
3.72527
4.20627
4.74574
5.35267
6.03893
6.81919
7.71139
8.73749
9.92454
11.306
12.924
14.8312
17.0951
19.8024
23.0654
27.0314
31.8956
37.9189
45.4547
54.9908
67.2236
83.2275
104.937
136.667
189.606
293.759
533.665
1200.28
3744.73
21601.3
3.80402
4.29395
4.84373
5.46251
6.16249
6.95876
7.86973
8.91791
10.131
11.5434
13.1981
15.1493
17.466
20.237
23.5772
27.6374
32.6165
38.7807
46.49
56.2406
68.7426
85.1007
107.333
139.996
194.87
303.216
552.653
1244.83
3885.25
22412.9
3.90484
4.40639
4.96947
5.60349
6.32116
7.13808
8.07325
9.14992
10.3967
11.8489
13.5511
15.5591
17.944
20.7973
24.2372
28.4186
33.5458
39.8915
47.8236
57.8495
70.6975
87.5136
110.432
144.334
201.773
315.633
577.546
1303.16
4069.18
23475.3
4.02974
4.54597
5.12557
5.77849
6.51814
7.36078
8.32615
9.43837
10.7271
12.2292
13.9907
16.0695
18.5396
21.4955
25.0597
29.3923
34.7039
41.275
49.4837
59.851
73.129
90.519
114.312
149.814
210.56
331.455
609.205
1377.26
4302.7
24824.4
4.18186
4.71628
5.3157
5.99147
6.75788
7.63195
8.63423
9.7899
11.13
12.6929
14.5268
16.6922
19.2663
22.3476
26.0636
30.5805
36.1166
42.9619
51.5063
62.2878
76.089
94.1861
119.078
156.622
221.559
351.274
648.769
1469.71
4593.96
26507.3
4.36725
4.9227
5.54497
6.2482
7.04719
7.9595
9.0066
10.2149
11.6169
13.2532
15.1743
17.4439
20.143
23.3749
27.2732
32.0113
37.8167
44.9902
53.9359
65.2127
79.6433
98.6044
124.873
165.003
235.205
375.858
697.711
1583.88
4953.49
28585.2
4.60524
5.17345
5.82294
6.5608
7.40069
8.36068
9.46336
10.7366
12.2149
13.941
15.9683
18.3643
21.2142
24.6271
28.7435
33.7452
39.8702
47.4323
56.8525
68.716
83.8991
103.916
131.91
175.31
252.089
406.219
757.945
1724.13
5394.81
31136.2
)
;

boundaryField
{
    walls
    {
        type            codedFixedValue;
        value           nonuniform List<scalar> 
80
(
363064
333099
308822
289218
273535
261203
251794
244990
240572
238396
238396
240572
244990
251794
261203
273535
289218
308822
333099
363064
363188
333427
309183
289549
273809
261414
251945
245093
240641
238448
238448
240641
245093
251945
261414
273809
289549
309183
333427
363188
363064
333099
308822
289218
273535
261203
251794
244990
240572
238396
238396
240572
244990
251794
261203
273535
289218
308822
333099
363064
363188
333427
309183
289549
273809
261414
251945
245093
240641
238448
238448
240641
245093
251945
261414
273809
289549
309183
333427
363188
)
;
        name            RASHBOmegaWallFunction;
        codeInclude     #{
				#include "wallDist.H"
				#include "fvCFD.H"
		#};
        code            #{

			const scalarField& nnu = this->db().lookupObject<volScalarField>("nu");
			const fvMesh& mesh_ = patch().boundaryMesh().mesh();
			const volScalarField& y_(wallDist::New(mesh_).y());
			
			const label id = mesh_.boundary().findPatchID("walls");
			const fvPatch& boundaryPatch = mesh_.boundary()[id];
			const labelList wallCells = boundaryPatch.faceCells();
			
			scalarField omegaw(boundaryPatch.size(), 0.0);
			
			forAll(omegaw, omwi)
			{
				label celli = wallCells[omwi];
				omegaw[omwi] = (10.0 * 6.0 * nnu[celli])
								/(0.075*sqr(y_[celli]));
			}
			
			operator==(omegaw);
		#};
        codeOptions     #{
			-I$(LIB_SRC)/finiteVolume/lnInclude\
			-I$(LIB_SRC)/meshTools/lnInclude\
			-I$(LIB_SRC)/TurbulenceModels/lnInclude
		#};
        codeLibs        #{ -lfiniteVolume -lmeshTools 
		#};
    }
    inlet
    {
        type            cyclic;
    }
    outlet
    {
        type            cyclic;
    }
}


// ************************************************************************* //
