/*--------------------------------*- C++ -*----------------------------------*\
| =========                 |                                                 |
| \\      /  F ield         | OpenFOAM: The Open Source CFD Toolbox           |
|  \\    /   O peration     | Version:  2306                                  |
|   \\  /    A nd           | Website:  www.openfoam.com                      |
|    \\/     M anipulation  |                                                 |
\*---------------------------------------------------------------------------*/
FoamFile
{
    version     2.0;
    format      ascii;
    arch        "LSB;label=32;scalar=64";
    class       volScalarField;
    location    "4685";
    object      p;
}
// * * * * * * * * * * * * * * * * * * * * * * * * * * * * * * * * * * * * * //

dimensions      [0 2 -2 0 0 0 0];

internalField   nonuniform List<scalar> 
2800
(
1.60733e-15
6.65726e-15
6.6178e-15
6.64144e-15
6.62771e-15
6.7113e-15
6.76981e-15
6.71956e-15
6.69169e-15
6.64169e-15
6.57117e-15
6.55063e-15
6.63381e-15
6.66984e-15
6.59803e-15
6.60476e-15
6.53337e-15
6.51076e-15
6.39903e-15
6.44349e-15
6.53412e-15
6.70035e-15
6.74671e-15
6.59718e-15
6.63004e-15
6.68787e-15
6.46923e-15
6.73296e-15
6.51479e-15
6.5284e-15
6.36859e-15
6.62988e-15
6.58839e-15
6.8308e-15
6.85277e-15
6.72229e-15
6.55108e-15
6.50585e-15
6.47745e-15
6.46209e-15
6.5338e-15
6.74001e-15
6.67643e-15
6.66357e-15
6.6267e-15
6.6704e-15
6.66638e-15
6.68462e-15
6.72318e-15
6.63844e-15
6.73225e-15
6.59321e-15
6.4044e-15
6.6304e-15
6.56358e-15
6.58753e-15
6.54727e-15
6.5024e-15
6.45638e-15
6.43952e-15
6.5462e-15
6.7023e-15
6.63474e-15
6.6527e-15
6.57194e-15
6.57343e-15
6.63349e-15
6.39085e-15
6.58955e-15
6.77666e-15
6.70169e-15
6.47497e-15
6.69949e-15
6.71791e-15
6.74768e-15
6.73867e-15
6.44329e-15
6.42244e-15
6.45513e-15
6.56048e-15
6.64721e-15
6.6446e-15
6.58457e-15
6.73159e-15
6.68837e-15
6.6553e-15
6.8321e-15
6.59536e-15
6.78166e-15
6.60523e-15
6.59896e-15
6.5488e-15
6.81403e-15
6.80316e-15
6.96542e-15
6.64044e-15
6.46587e-15
6.50877e-15
6.597e-15
6.41625e-15
6.72155e-15
6.57623e-15
6.60919e-15
6.59812e-15
6.58011e-15
6.54387e-15
6.53381e-15
6.56963e-15
6.51735e-15
6.69356e-15
6.58426e-15
6.725e-15
6.71985e-15
6.55343e-15
6.87992e-15
6.74631e-15
6.71791e-15
6.64809e-15
6.57736e-15
6.546e-15
6.64685e-15
6.70178e-15
6.6027e-15
6.62997e-15
6.4047e-15
6.51804e-15
6.57807e-15
6.39888e-15
6.4614e-15
6.60924e-15
6.79365e-15
6.80035e-15
6.99138e-15
6.63471e-15
6.94541e-15
6.57728e-15
6.61051e-15
6.54957e-15
6.3824e-15
6.25078e-15
6.69146e-15
6.45675e-15
6.61568e-15
6.99461e-15
6.66581e-15
6.60549e-15
6.66597e-15
6.59385e-15
6.5047e-15
6.49484e-15
6.8124e-15
6.72938e-15
6.58567e-15
6.6329e-15
6.82364e-15
6.72042e-15
6.48619e-15
6.55054e-15
6.37686e-15
6.56288e-15
6.64346e-15
6.60026e-15
6.41828e-15
6.68082e-15
6.42994e-15
6.56961e-15
6.66207e-15
6.64566e-15
6.45729e-15
6.69466e-15
6.56542e-15
6.66052e-15
6.66975e-15
6.48379e-15
6.81878e-15
6.43097e-15
6.46788e-15
6.4794e-15
6.43258e-15
6.27301e-15
6.62687e-15
6.66402e-15
6.64531e-15
6.70788e-15
6.63388e-15
6.58497e-15
6.71869e-15
6.65381e-15
6.5978e-15
6.62702e-15
6.5458e-15
6.65954e-15
6.72892e-15
6.57242e-15
6.66201e-15
6.59959e-15
6.66172e-15
6.45974e-15
6.4789e-15
6.49139e-15
6.60079e-15
6.38026e-15
6.61481e-15
6.6646e-15
6.61017e-15
6.81716e-15
6.51075e-15
6.63903e-15
6.63276e-15
6.65376e-15
6.73817e-15
6.68699e-15
6.59551e-15
6.68276e-15
6.42858e-15
6.65807e-15
6.48659e-15
6.41064e-15
6.34047e-15
6.39666e-15
6.60446e-15
6.55124e-15
6.65946e-15
6.8211e-15
6.7934e-15
6.7185e-15
6.53127e-15
6.75824e-15
6.59255e-15
6.78657e-15
6.43103e-15
6.74842e-15
6.71591e-15
6.74065e-15
6.56741e-15
6.68444e-15
6.4257e-15
6.3291e-15
6.45576e-15
6.54494e-15
6.46129e-15
6.70927e-15
6.7541e-15
6.72937e-15
6.65189e-15
6.72375e-15
6.53789e-15
6.80726e-15
6.63648e-15
6.76709e-15
6.32173e-15
6.71268e-15
6.62934e-15
6.59106e-15
6.44353e-15
6.6529e-15
6.52275e-15
6.40385e-15
6.4863e-15
6.41089e-15
6.59044e-15
6.4993e-15
6.61979e-15
6.62585e-15
6.69496e-15
6.83763e-15
6.76669e-15
6.63358e-15
6.81592e-15
6.67971e-15
6.50325e-15
6.29251e-15
6.49766e-15
6.57803e-15
6.4052e-15
6.42211e-15
6.37643e-15
6.4663e-15
6.41985e-15
6.24644e-15
6.60847e-15
6.4634e-15
6.60884e-15
6.5682e-15
6.41935e-15
6.28914e-15
6.2651e-15
6.56978e-15
6.44427e-15
6.59193e-15
6.72987e-15
6.54656e-15
6.49506e-15
6.38796e-15
6.39334e-15
6.56429e-15
6.40207e-15
6.44636e-15
6.46627e-15
6.39802e-15
6.62707e-15
6.51561e-15
6.57984e-15
6.62309e-15
6.72333e-15
6.46613e-15
6.68992e-15
6.56853e-15
6.66043e-15
6.72518e-15
6.38268e-15
6.44467e-15
6.34615e-15
6.44908e-15
6.31015e-15
6.47636e-15
6.54655e-15
6.43008e-15
6.63426e-15
6.43704e-15
6.61244e-15
6.57194e-15
6.47529e-15
6.67587e-15
6.75007e-15
6.45208e-15
6.46552e-15
6.54348e-15
6.46235e-15
6.40697e-15
6.25039e-15
6.44617e-15
6.31534e-15
6.42082e-15
6.45233e-15
6.35375e-15
6.54654e-15
6.44233e-15
6.42159e-15
6.42657e-15
6.61024e-15
6.57674e-15
6.51925e-15
6.58943e-15
6.43299e-15
6.43602e-15
6.49226e-15
6.48012e-15
6.56237e-15
6.50927e-15
6.48785e-15
6.46143e-15
6.43083e-15
6.52138e-15
6.52884e-15
6.48223e-15
6.51002e-15
6.51698e-15
6.29781e-15
6.42115e-15
6.71582e-15
6.49276e-15
6.5198e-15
6.47561e-15
6.40852e-15
6.41798e-15
6.59757e-15
6.62079e-15
6.46351e-15
6.58029e-15
6.61265e-15
6.5595e-15
6.52517e-15
6.59817e-15
6.56902e-15
6.23141e-15
6.53503e-15
6.6239e-15
6.46111e-15
6.39274e-15
6.57647e-15
6.45729e-15
6.46844e-15
6.32867e-15
6.52221e-15
6.3249e-15
6.63741e-15
6.32854e-15
6.60188e-15
6.51421e-15
6.55339e-15
6.52015e-15
6.58482e-15
6.70515e-15
6.62979e-15
6.53308e-15
6.57273e-15
6.54357e-15
6.52124e-15
6.47431e-15
6.54932e-15
6.44008e-15
6.46988e-15
6.39158e-15
6.3762e-15
6.31889e-15
6.31079e-15
6.34466e-15
6.31528e-15
6.29547e-15
6.33912e-15
6.37821e-15
6.36003e-15
6.37994e-15
6.38e-15
6.36788e-15
6.36678e-15
6.37515e-15
6.36159e-15
6.35276e-15
6.35021e-15
6.35388e-15
6.35505e-15
6.35674e-15
6.35548e-15
6.35474e-15
6.35487e-15
6.35523e-15
6.35529e-15
6.35509e-15
6.44082e-15
6.34983e-15
6.27449e-15
6.36231e-15
6.27076e-15
6.30398e-15
6.32853e-15
6.27257e-15
6.30498e-15
6.28856e-15
6.31301e-15
6.32196e-15
6.30725e-15
6.31359e-15
6.32312e-15
6.33984e-15
6.31078e-15
6.30924e-15
6.31895e-15
6.31595e-15
6.3199e-15
6.31689e-15
6.31941e-15
6.31442e-15
6.3123e-15
6.31539e-15
6.31634e-15
6.31653e-15
6.31672e-15
6.31612e-15
6.36187e-15
6.40646e-15
6.31907e-15
6.39115e-15
6.36964e-15
6.31917e-15
6.31385e-15
6.31519e-15
6.3168e-15
6.31933e-15
6.28605e-15
6.27064e-15
6.29239e-15
6.29564e-15
6.31343e-15
6.30837e-15
6.30756e-15
6.31619e-15
6.31321e-15
6.30605e-15
6.30274e-15
6.30638e-15
6.30257e-15
6.30095e-15
6.30627e-15
6.3073e-15
6.30596e-15
6.30628e-15
6.30648e-15
6.30592e-15
6.31864e-15
6.39839e-15
6.33602e-15
6.34414e-15
6.32844e-15
6.32745e-15
6.39544e-15
6.25768e-15
6.27691e-15
6.25562e-15
6.26223e-15
6.25453e-15
6.28166e-15
6.30603e-15
6.28055e-15
6.27177e-15
6.28033e-15
6.28252e-15
6.28275e-15
6.2846e-15
6.28371e-15
6.28117e-15
6.28007e-15
6.27787e-15
6.27649e-15
6.2814e-15
6.28454e-15
6.28087e-15
6.28203e-15
6.28234e-15
6.3578e-15
6.36078e-15
6.34003e-15
6.37922e-15
6.33516e-15
6.30513e-15
6.20337e-15
6.23514e-15
6.30459e-15
6.27422e-15
6.24405e-15
6.2512e-15
6.26169e-15
6.28763e-15
6.26077e-15
6.2397e-15
6.25618e-15
6.26165e-15
6.25276e-15
6.25152e-15
6.25976e-15
6.25555e-15
6.25092e-15
6.25867e-15
6.25911e-15
6.2579e-15
6.2575e-15
6.25749e-15
6.25712e-15
6.25769e-15
6.41352e-15
6.4792e-15
6.51011e-15
6.34303e-15
6.29414e-15
6.34196e-15
6.31841e-15
6.32352e-15
6.34087e-15
6.33031e-15
6.30689e-15
6.29431e-15
6.2826e-15
6.28642e-15
6.29751e-15
6.29705e-15
6.29273e-15
6.285e-15
6.29344e-15
6.29755e-15
6.30508e-15
6.30224e-15
6.29959e-15
6.30011e-15
6.30185e-15
6.30115e-15
6.30158e-15
6.30183e-15
6.30144e-15
6.30127e-15
6.35987e-15
6.49919e-15
6.35902e-15
6.34066e-15
6.43658e-15
6.35207e-15
6.38034e-15
6.42272e-15
6.40138e-15
6.39081e-15
6.38586e-15
6.36008e-15
6.33747e-15
6.35658e-15
6.35953e-15
6.35866e-15
6.36679e-15
6.36005e-15
6.35778e-15
6.35312e-15
6.35352e-15
6.35192e-15
6.35628e-15
6.35887e-15
6.35555e-15
6.35355e-15
6.35349e-15
6.35396e-15
6.35419e-15
6.35429e-15
6.47214e-15
6.45248e-15
6.3918e-15
6.34225e-15
6.32033e-15
6.44472e-15
6.41571e-15
6.36853e-15
6.35446e-15
6.36087e-15
6.35845e-15
6.39443e-15
6.37863e-15
6.38568e-15
6.38138e-15
6.38617e-15
6.36864e-15
6.35531e-15
6.35321e-15
6.35375e-15
6.35822e-15
6.35573e-15
6.35383e-15
6.35654e-15
6.35331e-15
6.35287e-15
6.35361e-15
6.35362e-15
6.35296e-15
6.35294e-15
6.40548e-15
6.25871e-15
6.40317e-15
6.40612e-15
6.44235e-15
6.40124e-15
6.45155e-15
6.51177e-15
6.42904e-15
6.45295e-15
6.41934e-15
6.42867e-15
6.42534e-15
6.41111e-15
6.40758e-15
6.42798e-15
6.42147e-15
6.42011e-15
6.41238e-15
6.41071e-15
6.41062e-15
6.40447e-15
6.40303e-15
6.40394e-15
6.4028e-15
6.40218e-15
6.40156e-15
6.40155e-15
6.40174e-15
6.40176e-15
6.51834e-15
6.59757e-15
6.53699e-15
6.38195e-15
6.46954e-15
6.4073e-15
6.50581e-15
6.49394e-15
6.45305e-15
6.4532e-15
6.45678e-15
6.4484e-15
6.44354e-15
6.44162e-15
6.43596e-15
6.42635e-15
6.43545e-15
6.42574e-15
6.42049e-15
6.41094e-15
6.41389e-15
6.41534e-15
6.41456e-15
6.41403e-15
6.41367e-15
6.41406e-15
6.4129e-15
6.41223e-15
6.41208e-15
6.41187e-15
6.38687e-15
6.33557e-15
6.37253e-15
6.39585e-15
6.45127e-15
6.48243e-15
6.43766e-15
6.4169e-15
6.42359e-15
6.40045e-15
6.41018e-15
6.40237e-15
6.42653e-15
6.43393e-15
6.41244e-15
6.43179e-15
6.42588e-15
6.43146e-15
6.42365e-15
6.4146e-15
6.42082e-15
6.42363e-15
6.42434e-15
6.42329e-15
6.42371e-15
6.42416e-15
6.42327e-15
6.42312e-15
6.42325e-15
6.42308e-15
6.40285e-15
6.45373e-15
6.52543e-15
6.49884e-15
6.52595e-15
6.52302e-15
6.49451e-15
6.40723e-15
6.5106e-15
6.49239e-15
6.4709e-15
6.44392e-15
6.4711e-15
6.48226e-15
6.45465e-15
6.4547e-15
6.45196e-15
6.44273e-15
6.44253e-15
6.44169e-15
6.44266e-15
6.44616e-15
6.44526e-15
6.44312e-15
6.44224e-15
6.44233e-15
6.44213e-15
6.44206e-15
6.44181e-15
6.4416e-15
6.43877e-15
6.39314e-15
6.33303e-15
6.48343e-15
6.51085e-15
6.44236e-15
6.44554e-15
6.37431e-15
6.41731e-15
6.44914e-15
6.42411e-15
6.43222e-15
6.43672e-15
6.43843e-15
6.44696e-15
6.4175e-15
6.42275e-15
6.42211e-15
6.41943e-15
6.41808e-15
6.41223e-15
6.41589e-15
6.41815e-15
6.41283e-15
6.41372e-15
6.41336e-15
6.41279e-15
6.41341e-15
6.41349e-15
6.41324e-15
6.3493e-15
6.23464e-15
6.54531e-15
6.45043e-15
6.44041e-15
6.46581e-15
6.48397e-15
6.49013e-15
6.55082e-15
6.5213e-15
6.51693e-15
6.46907e-15
6.46319e-15
6.45769e-15
6.43883e-15
6.43971e-15
6.44182e-15
6.42429e-15
6.41764e-15
6.43011e-15
6.43286e-15
6.43305e-15
6.43115e-15
6.42953e-15
6.43096e-15
6.43102e-15
6.43192e-15
6.4315e-15
6.43157e-15
6.43171e-15
6.40174e-15
6.47823e-15
6.57553e-15
6.50259e-15
6.46239e-15
6.4964e-15
6.45153e-15
6.42295e-15
6.41465e-15
6.46959e-15
6.46665e-15
6.46109e-15
6.44514e-15
6.42882e-15
6.42872e-15
6.42389e-15
6.41068e-15
6.41648e-15
6.42162e-15
6.42297e-15
6.41429e-15
6.41395e-15
6.41769e-15
6.41942e-15
6.4195e-15
6.41954e-15
6.41852e-15
6.41903e-15
6.41995e-15
6.42039e-15
6.26971e-15
6.38769e-15
6.34742e-15
6.34769e-15
6.3894e-15
6.35168e-15
6.34162e-15
6.35594e-15
6.41767e-15
6.4149e-15
6.40927e-15
6.41301e-15
6.42745e-15
6.40782e-15
6.41879e-15
6.42429e-15
6.40879e-15
6.40622e-15
6.41776e-15
6.41408e-15
6.40688e-15
6.41567e-15
6.42534e-15
6.41806e-15
6.41755e-15
6.41925e-15
6.42008e-15
6.42015e-15
6.41999e-15
6.42e-15
6.43662e-15
6.40946e-15
6.4337e-15
6.41059e-15
6.43175e-15
6.39723e-15
6.34531e-15
6.32217e-15
6.37583e-15
6.39275e-15
6.4147e-15
6.3994e-15
6.39268e-15
6.37611e-15
6.40205e-15
6.38909e-15
6.373e-15
6.38486e-15
6.38688e-15
6.39013e-15
6.38356e-15
6.38197e-15
6.38449e-15
6.38852e-15
6.39247e-15
6.38733e-15
6.38531e-15
6.38681e-15
6.3871e-15
6.38686e-15
6.45123e-15
6.47193e-15
6.4667e-15
6.36568e-15
6.39515e-15
6.32354e-15
6.30902e-15
6.34757e-15
6.33485e-15
6.31958e-15
6.35526e-15
6.34842e-15
6.3474e-15
6.34586e-15
6.35843e-15
6.37105e-15
6.36055e-15
6.35314e-15
6.3496e-15
6.35864e-15
6.36113e-15
6.35348e-15
6.3594e-15
6.36039e-15
6.35933e-15
6.35877e-15
6.3583e-15
6.35797e-15
6.35831e-15
6.35929e-15
6.52939e-15
6.46655e-15
6.42245e-15
6.28329e-15
6.37002e-15
6.30029e-15
6.32531e-15
6.34671e-15
6.30215e-15
6.30464e-15
6.29088e-15
6.27653e-15
6.29115e-15
6.31648e-15
6.29644e-15
6.28225e-15
6.31306e-15
6.32298e-15
6.31361e-15
6.31874e-15
6.32229e-15
6.32235e-15
6.31764e-15
6.32541e-15
6.32862e-15
6.32653e-15
6.32622e-15
6.32741e-15
6.32723e-15
6.3278e-15
6.40432e-15
6.40757e-15
6.30524e-15
6.25963e-15
6.20973e-15
6.2086e-15
6.29633e-15
6.25861e-15
6.29682e-15
6.31631e-15
6.24456e-15
6.22454e-15
6.22398e-15
6.23057e-15
6.25348e-15
6.26926e-15
6.27023e-15
6.25838e-15
6.27302e-15
6.27839e-15
6.28065e-15
6.28258e-15
6.2815e-15
6.28303e-15
6.28316e-15
6.28242e-15
6.28333e-15
6.28393e-15
6.28423e-15
6.28474e-15
6.37818e-15
6.31596e-15
6.27037e-15
6.34355e-15
6.34461e-15
6.32773e-15
6.28464e-15
6.22294e-15
6.25837e-15
6.25756e-15
6.2653e-15
6.25262e-15
6.23941e-15
6.24634e-15
6.25719e-15
6.25027e-15
6.26324e-15
6.26972e-15
6.26735e-15
6.26564e-15
6.26915e-15
6.27237e-15
6.26999e-15
6.27226e-15
6.27054e-15
6.27392e-15
6.27303e-15
6.27189e-15
6.27193e-15
6.27169e-15
6.37229e-15
6.45404e-15
6.52963e-15
6.42001e-15
6.34242e-15
6.35971e-15
6.336e-15
6.3084e-15
6.30438e-15
6.285e-15
6.33074e-15
6.30801e-15
6.31272e-15
6.29299e-15
6.29385e-15
6.30286e-15
6.2946e-15
6.29218e-15
6.28983e-15
6.29544e-15
6.29947e-15
6.30613e-15
6.30319e-15
6.30317e-15
6.30228e-15
6.30513e-15
6.30165e-15
6.30186e-15
6.30395e-15
6.30415e-15
6.53423e-15
6.56821e-15
6.43661e-15
6.50114e-15
6.48704e-15
6.39622e-15
6.42035e-15
6.45816e-15
6.36859e-15
6.36492e-15
6.33695e-15
6.3607e-15
6.3844e-15
6.34531e-15
6.3334e-15
6.34031e-15
6.30647e-15
6.32246e-15
6.31987e-15
6.31896e-15
6.31664e-15
6.31215e-15
6.31883e-15
6.32099e-15
6.3217e-15
6.31864e-15
6.31674e-15
6.31704e-15
6.31753e-15
6.31816e-15
6.38303e-15
6.63057e-15
6.50531e-15
6.59057e-15
6.44486e-15
6.448e-15
6.36731e-15
6.37631e-15
6.37906e-15
6.3848e-15
6.41403e-15
6.40506e-15
6.38632e-15
6.39935e-15
6.4162e-15
6.41454e-15
6.39839e-15
6.40633e-15
6.39374e-15
6.3869e-15
6.3764e-15
6.37909e-15
6.38474e-15
6.38477e-15
6.38275e-15
6.38066e-15
6.38258e-15
6.38344e-15
6.38163e-15
6.38142e-15
6.49771e-15
6.51803e-15
6.54598e-15
6.55596e-15
6.5776e-15
6.49386e-15
6.53647e-15
6.50271e-15
6.5344e-15
6.46555e-15
6.44955e-15
6.422e-15
6.42861e-15
6.43433e-15
6.42496e-15
6.41129e-15
6.42685e-15
6.42993e-15
6.43102e-15
6.41256e-15
6.42192e-15
6.42408e-15
6.41954e-15
6.41845e-15
6.4174e-15
6.41695e-15
6.41802e-15
6.41808e-15
6.41613e-15
6.41642e-15
6.53401e-15
6.73876e-15
6.77565e-15
6.6582e-15
6.54729e-15
6.51322e-15
6.56738e-15
6.50649e-15
6.48266e-15
6.46979e-15
6.49793e-15
6.53622e-15
6.48392e-15
6.48286e-15
6.48902e-15
6.46494e-15
6.46817e-15
6.4676e-15
6.45281e-15
6.4534e-15
6.45555e-15
6.45631e-15
6.45759e-15
6.46388e-15
6.45598e-15
6.45286e-15
6.45551e-15
6.45633e-15
6.45575e-15
6.45551e-15
6.54983e-15
6.68501e-15
6.62626e-15
6.6347e-15
6.62375e-15
6.54498e-15
6.56707e-15
6.51279e-15
6.5206e-15
6.5086e-15
6.4969e-15
6.47168e-15
6.45741e-15
6.47594e-15
6.46808e-15
6.46504e-15
6.45423e-15
6.45256e-15
6.43719e-15
6.43278e-15
6.43596e-15
6.4325e-15
6.43446e-15
6.43233e-15
6.4309e-15
6.42914e-15
6.42903e-15
6.4299e-15
6.43006e-15
6.43008e-15
6.58401e-15
6.58424e-15
6.5881e-15
6.68414e-15
6.53279e-15
6.55021e-15
6.5655e-15
6.48554e-15
6.57332e-15
6.55258e-15
6.52927e-15
6.48847e-15
6.47625e-15
6.50065e-15
6.49234e-15
6.47216e-15
6.46728e-15
6.46293e-15
6.46263e-15
6.46116e-15
6.46016e-15
6.46319e-15
6.45685e-15
6.45765e-15
6.46039e-15
6.45919e-15
6.45849e-15
6.45844e-15
6.45844e-15
6.45842e-15
6.50741e-15
6.7182e-15
6.50134e-15
6.57719e-15
6.57305e-15
6.549e-15
6.54107e-15
6.52234e-15
6.41192e-15
6.47655e-15
6.4629e-15
6.45024e-15
6.43917e-15
6.43903e-15
6.43786e-15
6.43242e-15
6.43915e-15
6.44866e-15
6.4364e-15
6.43468e-15
6.43995e-15
6.43607e-15
6.43656e-15
6.43544e-15
6.4358e-15
6.43653e-15
6.43688e-15
6.43678e-15
6.43658e-15
6.43672e-15
6.58994e-15
6.55647e-15
6.56524e-15
6.50186e-15
6.48153e-15
6.52875e-15
6.46307e-15
6.45209e-15
6.47965e-15
6.41753e-15
6.40886e-15
6.40919e-15
6.43823e-15
6.42035e-15
6.43294e-15
6.44867e-15
6.45958e-15
6.45199e-15
6.44532e-15
6.44246e-15
6.44549e-15
6.44313e-15
6.44434e-15
6.44571e-15
6.44684e-15
6.44592e-15
6.44631e-15
6.44634e-15
6.44659e-15
6.44665e-15
6.52019e-15
6.45463e-15
6.50044e-15
6.51216e-15
6.65026e-15
6.549e-15
6.47831e-15
6.51355e-15
6.45242e-15
6.44532e-15
6.4446e-15
6.4619e-15
6.43436e-15
6.43843e-15
6.42365e-15
6.40594e-15
6.41723e-15
6.43775e-15
6.42344e-15
6.42311e-15
6.42293e-15
6.42513e-15
6.4238e-15
6.4266e-15
6.42841e-15
6.42764e-15
6.42779e-15
6.42716e-15
6.42725e-15
6.42761e-15
6.63646e-15
6.54772e-15
6.48274e-15
6.46275e-15
6.4424e-15
6.47515e-15
6.47273e-15
6.46104e-15
6.43403e-15
6.4055e-15
6.40723e-15
6.41733e-15
6.39965e-15
6.40423e-15
6.41155e-15
6.42243e-15
6.4323e-15
6.42182e-15
6.42779e-15
6.42086e-15
6.41705e-15
6.41754e-15
6.42087e-15
6.42137e-15
6.42077e-15
6.41994e-15
6.42045e-15
6.42049e-15
6.42039e-15
6.41995e-15
6.36472e-15
6.41615e-15
6.38657e-15
6.41434e-15
6.39559e-15
6.36803e-15
6.41689e-15
6.44537e-15
6.41546e-15
6.38002e-15
6.44213e-15
6.42315e-15
6.41907e-15
6.41726e-15
6.41824e-15
6.438e-15
6.45339e-15
6.43552e-15
6.42688e-15
6.42573e-15
6.42214e-15
6.42052e-15
6.42204e-15
6.42253e-15
6.41945e-15
6.42048e-15
6.42097e-15
6.42084e-15
6.42064e-15
6.42053e-15
6.45264e-15
6.40292e-15
6.28346e-15
6.34052e-15
6.39004e-15
6.35473e-15
6.31729e-15
6.30613e-15
6.37705e-15
6.36216e-15
6.34197e-15
6.39159e-15
6.37694e-15
6.38334e-15
6.39651e-15
6.39366e-15
6.40202e-15
6.39332e-15
6.41553e-15
6.43063e-15
6.41956e-15
6.41722e-15
6.41611e-15
6.4169e-15
6.41752e-15
6.41808e-15
6.41906e-15
6.41877e-15
6.41846e-15
6.41785e-15
6.32046e-15
6.535e-15
6.52715e-15
6.36411e-15
6.31356e-15
6.37884e-15
6.29835e-15
6.33718e-15
6.36498e-15
6.45418e-15
6.43019e-15
6.38544e-15
6.39942e-15
6.41092e-15
6.42724e-15
6.43502e-15
6.41919e-15
6.42062e-15
6.42022e-15
6.42263e-15
6.423e-15
6.42098e-15
6.42141e-15
6.41584e-15
6.42276e-15
6.42531e-15
6.42322e-15
6.42316e-15
6.42328e-15
6.4233e-15
6.53235e-15
6.47419e-15
6.39142e-15
6.25933e-15
6.36839e-15
6.36564e-15
6.40606e-15
6.44606e-15
6.46332e-15
6.44281e-15
6.43345e-15
6.43683e-15
6.43167e-15
6.42423e-15
6.38217e-15
6.3955e-15
6.39863e-15
6.41976e-15
6.42986e-15
6.4388e-15
6.42811e-15
6.42815e-15
6.4321e-15
6.43506e-15
6.43513e-15
6.43254e-15
6.43212e-15
6.43186e-15
6.4335e-15
6.43374e-15
6.43194e-15
6.5658e-15
6.55078e-15
6.44964e-15
6.44719e-15
6.48728e-15
6.49239e-15
6.45495e-15
6.47584e-15
6.46879e-15
6.45451e-15
6.41702e-15
6.43281e-15
6.44064e-15
6.39798e-15
6.40588e-15
6.42055e-15
6.40558e-15
6.41504e-15
6.4187e-15
6.42958e-15
6.42713e-15
6.42804e-15
6.42628e-15
6.42532e-15
6.42757e-15
6.42591e-15
6.42513e-15
6.42669e-15
6.42718e-15
6.47609e-15
6.54728e-15
6.47587e-15
6.50413e-15
6.53814e-15
6.52745e-15
6.47365e-15
6.41988e-15
6.45471e-15
6.43557e-15
6.46705e-15
6.47076e-15
6.45711e-15
6.47563e-15
6.48307e-15
6.46897e-15
6.49647e-15
6.48085e-15
6.48224e-15
6.48226e-15
6.48406e-15
6.48689e-15
6.47612e-15
6.47509e-15
6.47676e-15
6.48014e-15
6.4824e-15
6.48106e-15
6.48147e-15
6.48107e-15
6.53616e-15
6.51342e-15
6.48122e-15
6.48575e-15
6.41185e-15
6.45143e-15
6.51697e-15
6.51111e-15
6.52477e-15
6.51188e-15
6.5047e-15
6.54746e-15
6.5007e-15
6.51459e-15
6.51317e-15
6.49413e-15
6.50705e-15
6.49883e-15
6.50574e-15
6.50619e-15
6.50136e-15
6.50037e-15
6.50421e-15
6.50175e-15
6.50307e-15
6.50167e-15
6.50508e-15
6.50568e-15
6.50407e-15
6.50325e-15
6.46596e-15
6.53318e-15
6.56233e-15
6.56938e-15
6.50317e-15
6.48314e-15
6.53859e-15
6.56034e-15
6.52262e-15
6.54698e-15
6.53993e-15
6.53658e-15
6.55031e-15
6.56397e-15
6.56798e-15
6.56306e-15
6.55341e-15
6.54824e-15
6.55457e-15
6.56163e-15
6.56093e-15
6.55638e-15
6.55489e-15
6.5505e-15
6.55277e-15
6.5526e-15
6.55436e-15
6.55399e-15
6.5541e-15
6.55393e-15
6.69111e-15
6.59607e-15
6.61046e-15
6.65764e-15
6.60115e-15
6.49199e-15
6.49683e-15
6.5459e-15
6.47843e-15
6.465e-15
6.52286e-15
6.55437e-15
6.53754e-15
6.5577e-15
6.56325e-15
6.55568e-15
6.55338e-15
6.55891e-15
6.54439e-15
6.53843e-15
6.53583e-15
6.53813e-15
6.53899e-15
6.5402e-15
6.53806e-15
6.53709e-15
6.5367e-15
6.53654e-15
6.53636e-15
6.53593e-15
6.68073e-15
6.62998e-15
6.5218e-15
6.63877e-15
6.5566e-15
6.57184e-15
6.57618e-15
6.52132e-15
6.55987e-15
6.53894e-15
6.56128e-15
6.56472e-15
6.54707e-15
6.55174e-15
6.56033e-15
6.57658e-15
6.54339e-15
6.53671e-15
6.54457e-15
6.54206e-15
6.54478e-15
6.54259e-15
6.54487e-15
6.53958e-15
6.53758e-15
6.54078e-15
6.5417e-15
6.54184e-15
6.54206e-15
6.54149e-15
6.5835e-15
6.6747e-15
6.53254e-15
6.64332e-15
6.61269e-15
6.58042e-15
6.57722e-15
6.58598e-15
6.60631e-15
6.62056e-15
6.5735e-15
6.55672e-15
6.56654e-15
6.56015e-15
6.57357e-15
6.56864e-15
6.56869e-15
6.57689e-15
6.57351e-15
6.56693e-15
6.56188e-15
6.56411e-15
6.56053e-15
6.55838e-15
6.56321e-15
6.56398e-15
6.56241e-15
6.56252e-15
6.56261e-15
6.56199e-15
6.53734e-15
6.58778e-15
6.5275e-15
6.57784e-15
6.54748e-15
6.5492e-15
6.62996e-15
6.52506e-15
6.56039e-15
6.54055e-15
6.54835e-15
6.54201e-15
6.5612e-15
6.57441e-15
6.5458e-15
6.53302e-15
6.53777e-15
6.53798e-15
6.5377e-15
6.54021e-15
6.5395e-15
6.53685e-15
6.53634e-15
6.53422e-15
6.53278e-15
6.53773e-15
6.54103e-15
6.53737e-15
6.53844e-15
6.53866e-15
6.59126e-15
6.54497e-15
6.54097e-15
6.59926e-15
6.56792e-15
6.55297e-15
6.47202e-15
6.51682e-15
6.59642e-15
6.5621e-15
6.53015e-15
6.53633e-15
6.54715e-15
6.57198e-15
6.54757e-15
6.52489e-15
6.54522e-15
6.55188e-15
6.54399e-15
6.54268e-15
6.55063e-15
6.54618e-15
6.54136e-15
6.54964e-15
6.55029e-15
6.54924e-15
6.54909e-15
6.54927e-15
6.54896e-15
6.54951e-15
6.6403e-15
6.68275e-15
6.70817e-15
6.5541e-15
6.52593e-15
6.59297e-15
6.59657e-15
6.63213e-15
6.62059e-15
6.59611e-15
6.60156e-15
6.58203e-15
6.57368e-15
6.57633e-15
6.58701e-15
6.58772e-15
6.58287e-15
6.57861e-15
6.58705e-15
6.5911e-15
6.59893e-15
6.59696e-15
6.59501e-15
6.59615e-15
6.59797e-15
6.5974e-15
6.59792e-15
6.59831e-15
6.59799e-15
6.59786e-15
6.56639e-15
6.6898e-15
6.54351e-15
6.52241e-15
6.65964e-15
6.60063e-15
6.64024e-15
6.69308e-15
6.67779e-15
6.66209e-15
6.6707e-15
6.64693e-15
6.6281e-15
6.65113e-15
6.65838e-15
6.66563e-15
6.67423e-15
6.66864e-15
6.66564e-15
6.66014e-15
6.6599e-15
6.65972e-15
6.6647e-15
6.66778e-15
6.66467e-15
6.66286e-15
6.66296e-15
6.66363e-15
6.66388e-15
6.66391e-15
6.63344e-15
6.60418e-15
6.56294e-15
6.52531e-15
6.52102e-15
6.65313e-15
6.62333e-15
6.56706e-15
6.57524e-15
6.58848e-15
6.60518e-15
6.65267e-15
6.64833e-15
6.67101e-15
6.68315e-15
6.69693e-15
6.68465e-15
6.67784e-15
6.6812e-15
6.68608e-15
6.69388e-15
6.69258e-15
6.69112e-15
6.69416e-15
6.69106e-15
6.69073e-15
6.69148e-15
6.69136e-15
6.6907e-15
6.69075e-15
6.51624e-15
6.39653e-15
6.58699e-15
6.58523e-15
6.6311e-15
6.59857e-15
6.65188e-15
6.71821e-15
6.63957e-15
6.68321e-15
6.64279e-15
6.65602e-15
6.66787e-15
6.65524e-15
6.65176e-15
6.66885e-15
6.66195e-15
6.66621e-15
6.66134e-15
6.66425e-15
6.66697e-15
6.66242e-15
6.66261e-15
6.6646e-15
6.66444e-15
6.66464e-15
6.66435e-15
6.66435e-15
6.66477e-15
6.66477e-15
6.67138e-15
6.75933e-15
6.66789e-15
6.51859e-15
6.63412e-15
6.57918e-15
6.6862e-15
6.69025e-15
6.66204e-15
6.68785e-15
6.71614e-15
6.71443e-15
6.70489e-15
6.7064e-15
6.70144e-15
6.69456e-15
6.70267e-15
6.69856e-15
6.69738e-15
6.69057e-15
6.69707e-15
6.69964e-15
6.70008e-15
6.70081e-15
6.70177e-15
6.70273e-15
6.70233e-15
6.70206e-15
6.70218e-15
6.70217e-15
6.60325e-15
6.57441e-15
6.59228e-15
6.57896e-15
6.63204e-15
6.66033e-15
6.64914e-15
6.64046e-15
6.65467e-15
6.62651e-15
6.63317e-15
6.63023e-15
6.65879e-15
6.67055e-15
6.6536e-15
6.67062e-15
6.66387e-15
6.66911e-15
6.66063e-15
6.65092e-15
6.65753e-15
6.66086e-15
6.66179e-15
6.66104e-15
6.6622e-15
6.66296e-15
6.66222e-15
6.66211e-15
6.66232e-15
6.66215e-15
6.64538e-15
6.70218e-15
6.71804e-15
6.66786e-15
6.70619e-15
6.70662e-15
6.71633e-15
6.60922e-15
6.7049e-15
6.69387e-15
6.67833e-15
6.65667e-15
6.68836e-15
6.698e-15
6.67763e-15
6.68369e-15
6.68594e-15
6.681e-15
6.6859e-15
6.68817e-15
6.69104e-15
6.69408e-15
6.69339e-15
6.69151e-15
6.69095e-15
6.69111e-15
6.69098e-15
6.69101e-15
6.69077e-15
6.69069e-15
6.72479e-15
6.67465e-15
6.55679e-15
6.70112e-15
6.74249e-15
6.67569e-15
6.65717e-15
6.57127e-15
6.60144e-15
6.63797e-15
6.61855e-15
6.63277e-15
6.64381e-15
6.6518e-15
6.66288e-15
6.64476e-15
6.6491e-15
6.6515e-15
6.64815e-15
6.64512e-15
6.64019e-15
6.64454e-15
6.64753e-15
6.64297e-15
6.64433e-15
6.64423e-15
6.64377e-15
6.64446e-15
6.64454e-15
6.64431e-15
6.66536e-15
6.53906e-15
6.82217e-15
6.68746e-15
6.64937e-15
6.66864e-15
6.67224e-15
6.67649e-15
6.73394e-15
6.69919e-15
6.70347e-15
6.65753e-15
6.66503e-15
6.66616e-15
6.65303e-15
6.66405e-15
6.67106e-15
6.65104e-15
6.64519e-15
6.65803e-15
6.66097e-15
6.66005e-15
6.65777e-15
6.65588e-15
6.65725e-15
6.65733e-15
6.65817e-15
6.65764e-15
6.65771e-15
6.65788e-15
6.783e-15
6.76469e-15
6.86576e-15
6.75245e-15
6.71413e-15
6.75051e-15
6.69094e-15
6.62852e-15
6.63212e-15
6.66865e-15
6.66815e-15
6.66815e-15
6.65762e-15
6.63697e-15
6.63422e-15
6.62694e-15
6.61543e-15
6.61609e-15
6.61838e-15
6.61874e-15
6.60886e-15
6.60876e-15
6.61178e-15
6.61241e-15
6.61154e-15
6.61104e-15
6.60978e-15
6.61007e-15
6.61085e-15
6.61116e-15
6.56168e-15
6.65751e-15
6.64473e-15
6.63568e-15
6.67627e-15
6.64675e-15
6.64008e-15
6.628e-15
6.68627e-15
6.68219e-15
6.65056e-15
6.64494e-15
6.65572e-15
6.6332e-15
6.63799e-15
6.64238e-15
6.62131e-15
6.61311e-15
6.6211e-15
6.61427e-15
6.60511e-15
6.61417e-15
6.62249e-15
6.61432e-15
6.6133e-15
6.61485e-15
6.6157e-15
6.6158e-15
6.61556e-15
6.61551e-15
6.74539e-15
6.7173e-15
6.71481e-15
6.73701e-15
6.71545e-15
6.67145e-15
6.64707e-15
6.64052e-15
6.69082e-15
6.69654e-15
6.68378e-15
6.65295e-15
6.63408e-15
6.61138e-15
6.63627e-15
6.62378e-15
6.6088e-15
6.62243e-15
6.62446e-15
6.62695e-15
6.62002e-15
6.61878e-15
6.6208e-15
6.62441e-15
6.62828e-15
6.62296e-15
6.62107e-15
6.62254e-15
6.62278e-15
6.62248e-15
6.74295e-15
6.74617e-15
6.71704e-15
6.64192e-15
6.65037e-15
6.58151e-15
6.54984e-15
6.60551e-15
6.59403e-15
6.57301e-15
6.59866e-15
6.59298e-15
6.58647e-15
6.57965e-15
6.58709e-15
6.59773e-15
6.58416e-15
6.57715e-15
6.57388e-15
6.58101e-15
6.58185e-15
6.57431e-15
6.58012e-15
6.58079e-15
6.57938e-15
6.57853e-15
6.57764e-15
6.57717e-15
6.57741e-15
6.57817e-15
7.14319e-15
6.91721e-15
6.79076e-15
6.65116e-15
6.75009e-15
6.69154e-15
6.6938e-15
6.70503e-15
6.6415e-15
6.63174e-15
6.60098e-15
6.5683e-15
6.569e-15
6.58651e-15
6.55762e-15
6.53565e-15
6.55936e-15
6.56451e-15
6.55298e-15
6.55684e-15
6.55812e-15
6.55628e-15
6.55002e-15
6.55668e-15
6.55913e-15
6.55644e-15
6.5559e-15
6.55691e-15
6.55646e-15
6.55683e-15
6.64226e-15
6.54224e-15
6.50312e-15
6.51883e-15
6.49989e-15
6.49776e-15
6.59473e-15
6.56407e-15
6.60559e-15
6.6152e-15
6.53465e-15
6.50127e-15
6.48506e-15
6.47814e-15
6.4884e-15
6.49141e-15
6.48356e-15
6.46458e-15
6.47389e-15
6.476e-15
6.4763e-15
6.47636e-15
6.47405e-15
6.47482e-15
6.47418e-15
6.47286e-15
6.47334e-15
6.47358e-15
6.47357e-15
6.47383e-15
6.55871e-15
6.46263e-15
6.46508e-15
6.61282e-15
6.66804e-15
6.64936e-15
6.60328e-15
6.53149e-15
6.55482e-15
6.54473e-15
6.54455e-15
6.5246e-15
6.50183e-15
6.49545e-15
6.49791e-15
6.48327e-15
6.49009e-15
6.49283e-15
6.48591e-15
6.47993e-15
6.48107e-15
6.48217e-15
6.47837e-15
6.47977e-15
6.4774e-15
6.48037e-15
6.47908e-15
6.47782e-15
6.47764e-15
6.47726e-15
6.91212e-15
6.82956e-15
6.79882e-15
6.70357e-15
6.61518e-15
6.63243e-15
6.58668e-15
6.56575e-15
6.56304e-15
6.54124e-15
6.58567e-15
6.568e-15
6.5688e-15
6.54532e-15
6.54398e-15
6.54477e-15
6.52979e-15
6.52286e-15
6.51532e-15
6.51987e-15
6.52171e-15
6.52729e-15
6.52366e-15
6.52259e-15
6.52103e-15
6.52352e-15
6.51978e-15
6.51977e-15
6.52173e-15
6.52184e-15
6.81173e-15
6.83675e-15
6.69385e-15
6.76082e-15
6.76605e-15
6.64209e-15
6.66291e-15
6.71405e-15
6.62329e-15
6.6054e-15
6.56552e-15
6.58513e-15
6.60917e-15
6.5651e-15
6.55245e-15
6.5552e-15
6.51921e-15
6.53324e-15
6.52946e-15
6.52768e-15
6.52487e-15
6.51969e-15
6.52597e-15
6.52787e-15
6.52858e-15
6.52549e-15
6.52349e-15
6.52375e-15
6.52424e-15
6.52493e-15
6.63037e-15
6.88728e-15
6.69461e-15
6.79017e-15
6.68291e-15
6.67964e-15
6.59573e-15
6.60155e-15
6.59985e-15
6.59933e-15
6.62166e-15
6.60612e-15
6.58159e-15
6.59377e-15
6.60559e-15
6.59222e-15
6.57592e-15
6.58558e-15
6.57454e-15
6.56811e-15
6.55598e-15
6.55953e-15
6.56662e-15
6.56782e-15
6.5664e-15
6.56449e-15
6.56632e-15
6.56706e-15
6.56515e-15
6.56487e-15
6.70543e-15
6.77481e-15
6.77143e-15
6.7914e-15
6.8048e-15
6.72224e-15
6.74128e-15
6.71818e-15
6.74316e-15
6.66747e-15
6.64341e-15
6.60663e-15
6.6126e-15
6.61743e-15
6.60688e-15
6.59264e-15
6.60449e-15
6.60779e-15
6.60736e-15
6.58889e-15
6.59812e-15
6.60157e-15
6.59717e-15
6.59628e-15
6.59541e-15
6.59484e-15
6.59593e-15
6.59585e-15
6.59393e-15
6.59428e-15
6.66335e-15
6.91752e-15
6.9302e-15
6.83047e-15
6.73302e-15
6.69786e-15
6.75079e-15
6.69576e-15
6.67809e-15
6.6689e-15
6.70188e-15
6.73767e-15
6.68525e-15
6.67946e-15
6.69048e-15
6.6672e-15
6.67271e-15
6.67536e-15
6.66379e-15
6.66546e-15
6.66832e-15
6.67016e-15
6.6717e-15
6.67844e-15
6.67122e-15
6.66872e-15
6.67135e-15
6.67208e-15
6.67151e-15
6.67135e-15
6.67504e-15
6.80572e-15
6.77685e-15
6.78621e-15
6.77659e-15
6.68823e-15
6.69661e-15
6.66255e-15
6.68099e-15
6.67651e-15
6.66915e-15
6.64567e-15
6.63229e-15
6.65174e-15
6.64809e-15
6.64922e-15
6.64679e-15
6.6526e-15
6.63942e-15
6.63718e-15
6.64216e-15
6.64076e-15
6.64407e-15
6.64273e-15
6.64208e-15
6.64116e-15
6.64154e-15
6.64266e-15
6.64307e-15
6.64333e-15
6.6723e-15
6.7045e-15
6.69755e-15
6.84452e-15
6.71606e-15
6.73261e-15
6.75212e-15
6.65994e-15
6.75077e-15
6.73276e-15
6.71055e-15
6.65703e-15
6.63517e-15
6.65561e-15
6.64577e-15
6.62065e-15
6.61841e-15
6.61595e-15
6.61573e-15
6.61442e-15
6.61358e-15
6.61797e-15
6.61271e-15
6.61409e-15
6.61733e-15
6.61612e-15
6.61567e-15
6.61579e-15
6.61598e-15
6.61609e-15
6.58899e-15
6.80247e-15
6.58333e-15
6.72612e-15
6.76117e-15
6.75907e-15
6.74218e-15