/*--------------------------------*- C++ -*----------------------------------*\
| =========                 |                                                 |
| \\      /  F ield         | OpenFOAM: The Open Source CFD Toolbox           |
|  \\    /   O peration     | Version:  2306                                  |
|   \\  /    A nd           | Website:  www.openfoam.com                      |
|    \\/     M anipulation  |                                                 |
\*---------------------------------------------------------------------------*/
FoamFile
{
    version     2.0;
    format      ascii;
    arch        "LSB;label=32;scalar=64";
    class       volVectorField;
    location    "4685";
    object      U;
}
// * * * * * * * * * * * * * * * * * * * * * * * * * * * * * * * * * * * * * //

dimensions      [0 1 -1 0 0 0 0];

internalField   nonuniform List<vector> 
2800
(
(3.86071e-16 2.57588e-16 2.57457)
(-2.78928e-15 -2.96657e-16 2.59559)
(-1.06117e-15 -1.81498e-17 2.61377)
(-6.84818e-16 -2.80129e-17 2.62998)
(-6.05468e-16 -3.86542e-17 2.64389)
(-5.79966e-16 -6.08679e-17 2.65543)
(-4.96954e-16 -1.84771e-17 2.66462)
(-4.18944e-16 -1.26993e-16 2.67149)
(-3.84809e-16 -9.13788e-17 2.67605)
(-3.62788e-16 -9.7584e-17 2.67833)
(-3.7479e-16 -8.06679e-17 2.67833)
(-3.92098e-16 -1.49134e-16 2.67605)
(-3.84482e-16 -1.92789e-16 2.67149)
(-2.6895e-16 -3.37771e-16 2.66462)
(-1.10761e-16 -3.74456e-16 2.65543)
(-2.7575e-17 -2.99824e-16 2.64389)
(-4.84533e-18 -2.00912e-16 2.62998)
(-3.11151e-17 -1.71196e-16 2.61377)
(-1.1133e-16 -1.55785e-16 2.59559)
(-1.97855e-16 -1.75103e-16 2.57457)
(-6.57877e-17 -2.79061e-15 2.59564)
(-9.80369e-16 -1.04593e-15 2.62168)
(-8.61062e-16 -5.16612e-16 2.64401)
(-6.29413e-16 -3.10404e-16 2.66325)
(-6.03678e-16 -2.23391e-16 2.67963)
(-4.92064e-16 -1.81857e-16 2.69318)
(-5.27015e-16 -1.51839e-16 2.70396)
(-4.76929e-16 -1.70221e-16 2.71201)
(-3.67662e-16 -2.02547e-16 2.71735)
(-3.60983e-16 -2.13951e-16 2.72001)
(-4.13672e-16 -2.19333e-16 2.72001)
(-4.56499e-16 -1.13179e-16 2.71735)
(-4.61532e-16 -3.26455e-17 2.71201)
(-3.88463e-16 -7.82657e-17 2.70396)
(-1.05422e-16 -1.31345e-16 2.69318)
(5.38715e-17 -1.39316e-16 2.67963)
(3.55734e-17 -9.87123e-17 2.66325)
(-6.80315e-17 -7.86634e-17 2.64401)
(-1.35411e-16 -1.08254e-16 2.62168)
(-1.47938e-16 -1.11891e-16 2.59564)
(5.4068e-17 -1.15135e-15 2.61383)
(-4.9053e-16 -1.00341e-15 2.64403)
(-5.36786e-16 -6.08339e-16 2.66985)
(-5.24829e-16 -4.85321e-16 2.69186)
(-5.37392e-16 -3.44049e-16 2.71041)
(-5.4062e-16 -2.89843e-16 2.72569)
(-5.04962e-16 -3.20839e-16 2.7378)
(-4.73653e-16 -1.41989e-16 2.74682)
(-4.33482e-16 -2.80893e-16 2.7528)
(-3.71749e-16 -3.0216e-16 2.75578)
(-2.57462e-16 -2.77547e-16 2.75578)
(-1.89839e-16 -8.4218e-17 2.7528)
(-3.37431e-16 -1.18479e-16 2.74682)
(-3.55868e-16 -3.4587e-17 2.7378)
(-1.66033e-16 -6.99695e-17 2.72569)
(-2.91928e-17 -9.15683e-17 2.71041)
(-1.79226e-17 -3.30807e-17 2.69186)
(-1.11751e-16 -4.49798e-17 2.66985)
(-1.64878e-16 -1.10107e-16 2.64403)
(-1.00505e-16 -1.50394e-16 2.61383)
(-9.27724e-18 -8.21487e-16 2.63005)
(-2.66411e-16 -7.48596e-16 2.66329)
(-3.64399e-16 -5.9438e-16 2.69188)
(-4.09008e-16 -5.5341e-16 2.7162)
(-4.32589e-16 -4.3607e-16 2.7366)
(-4.89221e-16 -3.60164e-16 2.75333)
(-3.9176e-16 -3.80404e-16 2.76655)
(-4.29856e-16 -2.47823e-16 2.77637)
(-5.28109e-16 -2.73698e-16 2.78287)
(-3.51287e-16 -2.18506e-16 2.78611)
(-1.78499e-16 -1.62838e-16 2.78611)
(-2.81843e-16 -1.43975e-16 2.78287)
(-3.84035e-16 -2.97042e-16 2.77637)
(-2.95321e-16 -2.28735e-16 2.76655)
(-1.20363e-16 -2.88603e-16 2.75333)
(9.17435e-17 -1.74394e-16 2.7366)
(5.26275e-17 -1.27849e-16 2.7162)
(-1.65057e-16 -1.3446e-16 2.69188)
(-2.11377e-16 -1.77129e-16 2.66329)
(-8.19862e-17 -1.41883e-16 2.63005)
(-6.79797e-17 -6.94077e-16 2.64395)
(-1.46339e-16 -6.071e-16 2.67967)
(-3.31262e-16 -5.79175e-16 2.71044)
(-3.6781e-16 -5.02369e-16 2.73661)
(-3.45237e-16 -4.11605e-16 2.75853)
(-4.89101e-16 -3.63479e-16 2.77645)
(-3.86602e-16 -3.09547e-16 2.79056)
(-3.5677e-16 -3.20178e-16 2.80102)
(-3.90998e-16 -2.26525e-16 2.80793)
(-2.5894e-16 -1.89446e-16 2.81137)
(-1.9096e-16 -2.1035e-16 2.81137)
(-3.31418e-16 -2.8529e-16 2.80793)
(-4.06602e-16 -2.18949e-16 2.80102)
(-3.06361e-16 -1.00126e-16 2.79056)
(-5.79306e-17 -2.19775e-16 2.77645)
(1.52219e-16 -2.08437e-16 2.75853)
(8.6305e-18 -2.75734e-16 2.73661)
(-1.6266e-16 -2.66443e-16 2.71044)
(-1.33682e-16 -1.81336e-16 2.67967)
(-6.03567e-17 -1.18945e-16 2.64395)
(-3.65878e-20 -5.29358e-16 2.65549)
(-9.99448e-17 -5.47215e-16 2.69323)
(-2.38643e-16 -5.53994e-16 2.72572)
(-2.3994e-16 -4.63101e-16 2.75335)
(-2.79221e-16 -3.26622e-16 2.77645)
(-3.73709e-16 -3.21006e-16 2.7953)
(-3.42715e-16 -2.10906e-16 2.81012)
(-3.34888e-16 -1.84802e-16 2.82108)
(-3.78911e-16 -1.16192e-16 2.82831)
(-3.34592e-16 -2.21194e-16 2.8319)
(-2.84015e-16 -3.29623e-16 2.8319)
(-2.89436e-16 -3.81779e-16 2.82831)
(-1.8716e-16 -2.82323e-16 2.82108)
(-2.71983e-16 -1.08348e-16 2.81012)
(-2.05356e-16 -1.50002e-16 2.7953)
(3.23202e-17 -1.72182e-16 2.77645)
(-3.33217e-17 -2.134e-16 2.75335)
(-8.13157e-17 -1.60685e-16 2.72572)
(-7.63842e-17 -1.83344e-17 2.69323)
(-1.04478e-16 4.63091e-18 2.65549)
(-8.76121e-17 -4.33069e-16 2.66468)
(-1.26583e-16 -4.33383e-16 2.70401)
(-2.3572e-16 -5.14413e-16 2.73783)
(-1.62456e-16 -6.32652e-16 2.76657)
(-2.0664e-16 -4.87207e-16 2.79057)
(-3.66021e-16 -4.2499e-16 2.81012)
(-2.49946e-16 -3.73198e-16 2.82546)
(-2.53235e-16 -3.16143e-16 2.83679)
(-4.18699e-16 -2.32709e-16 2.84426)
(-4.73212e-16 -2.23395e-16 2.84797)
(-3.55332e-16 -2.91882e-16 2.84797)
(-2.76337e-16 -2.47613e-16 2.84426)
(-1.25944e-16 -1.72705e-16 2.83679)
(-1.65422e-16 -1.72791e-16 2.82546)
(-1.10993e-16 -1.59445e-16 2.81012)
(8.41964e-17 -1.24632e-16 2.79057)
(-1.77408e-17 -7.3861e-17 2.76657)
(-1.12955e-17 -6.92066e-17 2.73783)
(-1.78161e-17 -2.08083e-17 2.70401)
(-1.63282e-16 -7.89802e-17 2.66468)
(-3.61697e-17 -3.85529e-16 2.67154)
(-1.53743e-16 -3.84638e-16 2.71205)
(-4.235e-16 -3.81305e-16 2.74685)
(-2.35645e-16 -4.48515e-16 2.77639)
(-9.15119e-17 -4.51825e-16 2.80103)
(-2.70031e-16 -4.16245e-16 2.82108)
(-2.53238e-16 -4.03445e-16 2.8368)
(-1.98704e-16 -4.35918e-16 2.84839)
(-2.83167e-16 -3.17555e-16 2.85603)
(-3.9158e-16 -2.54437e-16 2.85983)
(-3.09303e-16 -1.37194e-16 2.85983)
(-1.706e-16 -1.0981e-16 2.85603)
(-1.19739e-16 -2.51038e-17 2.84839)
(-2.55333e-16 -4.97215e-17 2.8368)
(-1.48016e-16 -8.29075e-17 2.82108)
(1.05677e-16 -9.7277e-17 2.80103)
(-4.81894e-18 -1.10371e-16 2.77639)
(-4.56651e-17 -1.37075e-16 2.74685)
(-1.03364e-16 -1.57963e-16 2.71205)
(-1.67556e-16 -1.7509e-16 2.67154)
(-8.82634e-17 -3.48833e-16 2.6761)
(-1.00389e-16 -4.21064e-16 2.71739)
(-2.88409e-16 -3.94029e-16 2.75283)
(-2.41124e-16 -2.97057e-16 2.78289)
(-1.82895e-16 -3.83853e-16 2.80795)
(-3.18705e-16 -3.90521e-16 2.82832)
(-2.80556e-16 -3.76627e-16 2.84427)
(-1.75391e-16 -3.83937e-16 2.85603)
(-2.37312e-16 -3.67551e-16 2.86379)
(-2.8868e-16 -2.86897e-16 2.86765)
(-2.10254e-16 -1.17752e-16 2.86765)
(-1.68093e-16 -1.34163e-16 2.86379)
(-7.82459e-17 -1.38484e-16 2.85603)
(-2.297e-16 -1.53959e-16 2.84427)
(-1.51295e-16 -5.27335e-17 2.82832)
(5.80693e-17 -1.76228e-16 2.80795)
(-5.59356e-17 -2.81403e-16 2.78289)
(-5.37359e-17 -1.99198e-16 2.75283)
(-4.12199e-17 -2.49429e-16 2.71739)
(-1.08041e-16 -1.72478e-16 2.6761)
(-1.40199e-16 -3.26302e-16 2.67837)
(-1.96102e-16 -2.97395e-16 2.72005)
(-3.08791e-16 -4.49241e-16 2.75581)
(-2.35892e-16 -3.8971e-16 2.78613)
(-1.87911e-16 -4.48037e-16 2.81139)
(-2.67738e-16 -4.46937e-16 2.83191)
(-2.55197e-16 -3.0184e-16 2.84798)
(-1.95824e-16 -3.41079e-16 2.85983)
(-1.89934e-16 -3.55858e-16 2.86765)
(-1.42638e-16 -2.81572e-16 2.87155)
(-1.57746e-16 -2.43311e-16 2.87155)
(-1.92871e-16 -1.95764e-16 2.86765)
(-1.40875e-16 -1.6245e-16 2.85983)
(-1.69286e-16 -2.39883e-16 2.84798)
(-1.55671e-16 -2.42231e-17 2.83191)
(-1.02296e-16 -2.74099e-16 2.81139)
(-9.15739e-18 -2.69032e-16 2.78613)
(1.01075e-17 -2.00886e-16 2.75581)
(-5.74405e-17 -2.22747e-16 2.72005)
(-9.66309e-17 -2.41997e-16 2.67837)
(-4.21461e-17 -3.21997e-16 2.67837)
(-2.23803e-16 -3.56157e-16 2.72005)
(-3.87552e-16 -4.196e-16 2.75581)
(-2.63589e-16 -4.27434e-16 2.78613)
(-2.54191e-16 -4.55569e-16 2.81139)
(-1.85002e-16 -3.97906e-16 2.83191)
(-1.85096e-16 -2.72321e-16 2.84798)
(-2.34634e-16 -3.36366e-16 2.85983)
(-1.82053e-16 -3.07231e-16 2.86765)
(-1.77895e-16 -2.90192e-16 2.87155)
(-1.25784e-16 -1.8531e-16 2.87155)
(-8.88494e-17 -2.22159e-16 2.86765)
(-1.19832e-16 -2.24259e-16 2.85983)
(-8.99139e-17 -2.44346e-16 2.84798)
(-1.66724e-16 -1.43936e-16 2.83191)
(-1.63436e-16 -2.35975e-16 2.81139)
(3.82024e-17 -1.48229e-16 2.78613)
(2.01773e-17 -1.73382e-16 2.75581)
(-5.03549e-17 -2.32741e-16 2.72005)
(-2.6866e-17 -2.32088e-16 2.67837)
(-1.97571e-16 -3.25733e-16 2.6761)
(-3.03898e-16 -5.14153e-16 2.71739)
(-3.96131e-16 -4.38054e-16 2.75283)
(-2.93974e-16 -3.98597e-16 2.78289)
(-1.79799e-16 -3.72285e-16 2.80795)
(-1.01985e-16 -3.22504e-16 2.82832)
(-2.04938e-16 -3.45022e-16 2.84427)
(-2.36332e-16 -3.4515e-16 2.85603)
(-1.47706e-16 -3.05329e-16 2.86379)
(-2.15281e-17 -2.65453e-16 2.86765)
(-8.99402e-17 -5.57144e-17 2.86765)
(-2.3223e-16 -1.51153e-16 2.86379)
(-1.59971e-16 -1.75805e-16 2.85603)
(-8.37699e-17 -1.67824e-16 2.84427)
(-1.31945e-16 -1.82786e-16 2.82832)
(-9.44822e-17 -1.83962e-16 2.80795)
(7.20095e-17 -1.82438e-16 2.78289)
(-4.14956e-17 -2.1328e-16 2.75283)
(-8.35551e-17 -2.79105e-16 2.71739)
(5.13552e-17 -1.74596e-16 2.6761)
(-2.44827e-16 -3.62775e-16 2.67154)
(-3.62785e-16 -3.14089e-16 2.71205)
(-3.13651e-16 -2.84512e-16 2.74685)
(-2.27626e-16 -2.2454e-16 2.77639)
(-2.01156e-16 -2.50859e-16 2.80103)
(-1.76499e-16 -3.21433e-16 2.82108)
(-2.21673e-16 -3.5969e-16 2.8368)
(-2.05915e-16 -2.58301e-16 2.84839)
(-1.0432e-16 -3.13477e-16 2.85603)
(7.48693e-17 -2.29156e-16 2.85983)
(-9.03341e-18 -2.0649e-16 2.85983)
(-2.09778e-16 1.14727e-17 2.85603)
(-1.38011e-16 -1.56369e-17 2.84839)
(-9.16867e-17 -2.18405e-17 2.8368)
(-1.74358e-16 -4.59485e-17 2.82108)
(-1.53446e-16 -1.35776e-17 2.80103)
(3.13143e-17 -8.70873e-17 2.77639)
(-4.08583e-17 -1.84972e-16 2.74685)
(1.3148e-17 -9.29487e-17 2.71205)
(1.04991e-16 -6.39189e-18 2.67154)
(-1.54386e-16 -3.70491e-16 2.66468)
(-2.77344e-16 -1.67255e-16 2.70401)
(-3.33915e-16 -1.79088e-16 2.73783)
(-2.85502e-16 -1.42397e-16 2.76657)
(-2.97672e-16 -1.22497e-16 2.79057)
(-2.38443e-16 -1.87812e-17 2.81012)
(-1.65878e-16 -7.21399e-17 2.82546)
(-2.04298e-16 -1.11675e-16 2.83679)
(-1.17632e-16 -1.68527e-16 2.84426)
(9.49979e-17 -1.76917e-16 2.84797)
(1.59042e-16 -3.14203e-16 2.84797)
(-4.3964e-17 -1.09776e-16 2.84426)
(-2.06638e-16 -4.92245e-17 2.83679)
(-1.19756e-16 1.32561e-17 2.82546)
(-1.31814e-16 -4.509e-17 2.81012)
(-1.4474e-16 3.52098e-18 2.79057)
(-8.81408e-17 -3.62825e-17 2.76657)
(-3.31394e-17 -8.98228e-17 2.73783)
(8.87944e-17 -5.00207e-17 2.70401)
(7.81563e-17 -7.10022e-17 2.66468)
(-7.51618e-17 -3.11985e-16 2.65549)
(-2.16619e-16 -2.46956e-16 2.69323)
(-3.05243e-16 -1.96475e-16 2.72572)
(-1.75719e-16 -2.33241e-16 2.75335)
(-7.76362e-17 -2.25203e-16 2.77645)
(-1.36014e-16 -5.90556e-17 2.7953)
(-3.25977e-16 -1.27269e-16 2.81012)
(-3.10004e-16 -1.51914e-16 2.82108)
(-1.65355e-16 -1.38358e-16 2.82831)
(-5.86943e-17 -1.65617e-16 2.8319)
(7.25266e-17 -1.37969e-16 2.8319)
(6.08372e-17 -1.85418e-16 2.82831)
(-2.55051e-17 -6.05769e-17 2.82108)
(-1.0735e-16 -2.76981e-17 2.81012)
(-2.0741e-16 -3.98169e-17 2.7953)
(-1.6769e-16 -3.70562e-17 2.77645)
(-8.01945e-17 -1.02735e-16 2.75335)
(-6.29477e-17 -6.10826e-17 2.72572)
(1.06501e-17 -1.48351e-16 2.69323)
(6.50009e-17 -1.34749e-16 2.65549)
(-1.34739e-16 -2.52057e-16 2.64395)
(-2.00956e-16 -2.74461e-16 2.67967)
(-3.43026e-16 -1.46552e-16 2.71044)
(-2.99657e-16 -2.52029e-16 2.73661)
(-1.12427e-16 -3.43153e-16 2.75853)
(-1.46692e-16 -2.88238e-16 2.77645)
(-2.64634e-16 -2.80417e-16 2.79056)
(-2.09242e-16 -1.64582e-16 2.80102)
(-1.16762e-16 -1.11159e-16 2.80793)
(1.21164e-16 -1.54687e-17 2.81137)
(1.67194e-16 5.30718e-17 2.81137)
(4.50116e-17 -5.30512e-17 2.80793)
(-5.07203e-17 -3.51975e-17 2.80102)
(-1.15082e-16 -9.49747e-17 2.79056)
(-1.69899e-16 -8.38073e-17 2.77645)
(-2.44896e-16 -5.60722e-18 2.75853)
(-1.46784e-16 -9.03402e-17 2.73661)
(-8.66457e-17 -3.98154e-17 2.71044)
(1.98382e-17 6.00226e-18 2.67967)
(1.63326e-16 -3.11059e-17 2.64395)
(-1.91676e-16 -2.32852e-16 2.63005)
(-1.70576e-16 -2.34771e-16 2.66329)
(-3.37281e-16 -1.22829e-16 2.69188)
(-3.89644e-16 -6.41242e-17 2.7162)
(-1.31724e-16 -3.70213e-17 2.7366)
(-9.24112e-17 -1.14228e-16 2.75333)
(-2.21406e-16 -8.37266e-17 2.76655)
(-1.36931e-16 -4.88986e-17 2.77637)
(8.29343e-18 -3.88466e-17 2.78287)
(1.40748e-16 -2.49748e-17 2.78611)
(5.9935e-17 -1.39552e-16 2.78611)
(-1.46278e-17 -1.51374e-16 2.78287)
(-7.52308e-17 -1.90295e-16 2.77637)
(-1.81998e-16 -1.95602e-16 2.76655)
(-1.50218e-16 -1.94841e-16 2.75333)
(-2.17226e-16 -8.26244e-17 2.7366)
(-1.57322e-16 -4.96042e-17 2.7162)
(-9.79781e-18 -2.64195e-17 2.69188)
(1.33985e-17 1.1681e-16 2.66329)
(2.54286e-17 6.96285e-19 2.63005)
(-1.77746e-16 -2.28975e-16 2.61383)
(-1.67524e-16 -1.4729e-16 2.64403)
(-2.41405e-16 -1.12527e-16 2.66985)
(-2.46682e-16 3.88339e-17 2.69186)
(-1.7876e-16 7.54704e-17 2.71041)
(-2.28699e-16 -5.75487e-17 2.72569)
(-2.1809e-16 -1.3608e-16 2.7378)
(-1.44541e-16 -1.24141e-16 2.74682)
(-5.91155e-17 -1.12506e-16 2.7528)
(5.82353e-17 -1.84767e-16 2.75578)
(6.73648e-17 -3.217e-16 2.75578)
(7.39639e-18 -2.54943e-16 2.7528)
(-1.01581e-16 -2.94685e-16 2.74682)
(-1.43581e-16 -2.80868e-16 2.7378)
(-8.13015e-17 -1.91759e-16 2.72569)
(-1.35604e-16 -5.95529e-17 2.71041)
(-1.55422e-16 -5.01274e-17 2.69186)
(7.06654e-18 -8.91407e-17 2.66985)
(3.51683e-18 -3.58705e-17 2.64403)
(-6.42388e-17 -2.61675e-17 2.61383)
(-1.10791e-16 -1.27173e-16 2.59564)
(-1.20571e-16 -7.19315e-17 2.62168)
(-1.91587e-16 -6.50598e-17 2.64401)
(-2.07379e-16 1.51099e-18 2.66325)
(-2.20132e-16 -7.22682e-17 2.67963)
(-3.3007e-16 -3.23412e-17 2.69318)
(-2.84395e-16 -9.19969e-17 2.70396)
(-8.89396e-17 -9.03595e-18 2.71201)
(-1.41275e-17 -7.93248e-17 2.71735)
(-3.74324e-17 -9.03861e-17 2.72001)
(2.09417e-17 -1.60202e-16 2.72001)
(4.20236e-17 -1.87936e-16 2.71735)
(-9.169e-17 -2.39096e-16 2.71201)
(-8.79406e-17 -2.54504e-16 2.70396)
(7.14325e-17 -1.8883e-16 2.69318)
(-9.88797e-17 -1.52011e-16 2.67963)
(-2.62196e-16 -1.05452e-16 2.66325)
(-7.1085e-17 -7.58218e-17 2.64401)
(8.72053e-18 -1.04056e-16 2.62168)
(-6.52931e-17 -5.2689e-17 2.59564)
(-6.87077e-17 -6.99999e-17 2.57457)
(-1.2252e-16 -1.3614e-16 2.59559)
(-1.89347e-16 -1.23016e-16 2.61377)
(-2.30993e-16 -1.18325e-16 2.62998)
(-1.9872e-16 -1.51019e-16 2.64389)
(-2.66903e-16 -2.17142e-17 2.65543)
(-1.91826e-16 7.15967e-17 2.66462)
(-1.12157e-16 1.02762e-16 2.67149)
(-1.21832e-16 -4.02509e-17 2.67605)
(6.60048e-18 -3.21411e-17 2.67833)
(2.67647e-18 -4.31217e-17 2.67833)
(-4.09015e-17 -1.19448e-16 2.67605)
(-1.54732e-16 -1.65638e-16 2.67149)
(-1.02366e-16 -1.47e-16 2.66462)
(3.4934e-17 -1.69753e-16 2.65543)
(-3.06353e-17 -2.12507e-16 2.64389)
(-1.24356e-16 -8.3325e-17 2.62998)
(-7.18908e-17 -1.67843e-17 2.61377)
(1.14539e-17 -3.85492e-18 2.59559)
(1.6949e-17 5.57987e-17 2.57457)
(-1.24073e-16 -1.86955e-16 2.53409)
(-2.58365e-17 -1.71357e-16 2.48367)
(4.68884e-18 -1.7279e-16 2.43161)
(3.30452e-17 -2.18063e-16 2.37817)
(5.71915e-21 -2.13346e-16 2.32349)
(-5.34537e-17 -1.804e-16 2.26759)
(-1.15668e-16 -1.27754e-16 2.21041)
(-1.40906e-16 -9.27818e-17 2.15185)
(-1.65508e-16 -7.7947e-17 2.09175)
(-2.33208e-16 -2.56502e-17 2.02991)
(-2.86021e-16 7.21922e-18 1.96609)
(-2.76655e-16 -3.41458e-18 1.89996)
(-2.48642e-16 -2.11284e-17 1.83116)
(-2.17277e-16 -3.79211e-17 1.75924)
(-1.76533e-16 -6.51817e-17 1.68367)
(-1.4338e-16 -8.48328e-17 1.60382)
(-1.17534e-16 -9.40388e-17 1.51894)
(-8.56975e-17 -1.08234e-16 1.42814)
(-5.86453e-17 -1.17717e-16 1.33042)
(-4.90572e-17 -1.10648e-16 1.22469)
(-5.34316e-17 -9.07263e-17 1.10997)
(-5.73355e-17 -7.03183e-17 0.985779)
(-5.21023e-17 -5.72376e-17 0.853157)
(-3.95899e-17 -5.06984e-17 0.715758)
(-2.96225e-17 -4.26459e-17 0.579708)
(-2.35173e-17 -3.25931e-17 0.450946)
(-1.77311e-17 -2.30261e-17 0.332683)
(-1.13263e-17 -1.44547e-17 0.225509)
(-4.98629e-18 -6.01524e-18 0.128759)
(-2.78325e-18 -3.75243e-18 0.0414411)
(-6.79688e-18 -7.34753e-17 2.55528)
(2.49713e-17 -1.41415e-16 2.50433)
(-1.92384e-17 -1.25492e-16 2.45227)
(-3.23297e-17 -1.66206e-16 2.39901)
(-6.42786e-17 -1.97533e-16 2.34456)
(-1.18646e-16 -1.78316e-16 2.28892)
(-1.08684e-16 -1.98624e-16 2.23203)
(-1.25273e-16 -1.89383e-16 2.17379)
(-1.6315e-16 -1.66791e-16 2.11406)
(-1.67798e-16 -1.54947e-16 2.05262)
(-1.71643e-16 -1.29632e-16 1.98924)
(-1.50086e-16 -1.20001e-16 1.92362)
(-1.3254e-16 -1.15587e-16 1.85538)
(-1.31839e-16 -1.01951e-16 1.78409)
(-1.18157e-16 -9.93836e-17 1.70922)
(-8.42564e-17 -1.11544e-16 1.63013)
(-6.68061e-17 -1.12333e-16 1.54608)
(-7.31602e-17 -9.64339e-17 1.45617)
(-7.21369e-17 -8.5779e-17 1.35936)
(-6.35779e-17 -8.01158e-17 1.2545)
(-5.36186e-17 -7.40762e-17 1.14044)
(-4.31711e-17 -6.71181e-17 1.01644)
(-3.08899e-17 -6.03628e-17 0.883018)
(-2.33478e-17 -5.0437e-17 0.743311)
(-2.49641e-17 -3.53544e-17 0.603402)
(-2.50534e-17 -2.24412e-17 0.4699)
(-1.86409e-17 -1.54042e-17 0.346807)
(-1.06304e-17 -9.99322e-18 0.235114)
(-3.78299e-18 -3.90605e-18 0.134253)
(-2.44001e-18 -3.12384e-18 0.0432132)
(-5.77508e-17 -8.19645e-17 2.57257)
(-9.2946e-17 -1.37892e-16 2.52217)
(-7.65035e-17 -1.44039e-16 2.47041)
(-8.28633e-17 -1.40835e-16 2.41739)
(-4.38348e-17 -1.87791e-16 2.36318)
(-1.99565e-17 -2.09027e-16 2.30779)
(-4.4218e-17 -2.01552e-16 2.25116)
(-2.3069e-17 -1.93846e-16 2.19321)
(4.04628e-18 -2.03539e-16 2.13377)
(7.136e-18 -2.0371e-16 2.07267)
(-1.08784e-17 -1.88708e-16 2.00966)
(-5.11787e-17 -1.61816e-16 1.94445)
(-9.16866e-17 -1.45479e-16 1.87667)
(-1.1021e-16 -1.40897e-16 1.80589)
(-1.008e-16 -1.44149e-16 1.73159)
(-9.17469e-17 -1.47194e-16 1.65314)
(-9.57336e-17 -1.45459e-16 1.56978)
(-8.54292e-17 -1.50924e-16 1.48063)
(-6.62979e-17 -1.59055e-16 1.38461)
(-5.88023e-17 -1.57383e-16 1.28052)
(-6.42355e-17 -1.44187e-16 1.16711)
(-6.50858e-17 -1.30494e-16 1.04339)
(-6.45534e-17 -1.13746e-16 0.909471)
(-7.25934e-17 -8.90277e-17 0.767966)
(-6.75815e-17 -7.1148e-17 0.624792)
(-5.18064e-17 -5.87551e-17 0.487095)
(-3.68533e-17 -4.56829e-17 0.359635)
(-2.41033e-17 -3.13633e-17 0.243835)
(-1.1772e-17 -1.62708e-17 0.139237)
(-5.49508e-18 -7.74833e-18 0.0448195)
(-8.50299e-17 -1.37611e-16 2.58747)
(-9.60472e-17 -1.3247e-16 2.53754)
(-5.72368e-17 -1.48742e-16 2.4861)
(-6.83449e-17 -1.18991e-16 2.43335)
(-5.12121e-17 -8.84464e-17 2.37939)
(-3.00512e-17 -8.09734e-17 2.32422)
(9.37429e-17 -1.00101e-16 2.26782)
(1.17907e-16 -1.04587e-16 2.2101)
(4.71962e-17 -8.61111e-17 2.15092)
(3.99738e-17 -8.25469e-17 2.0901)
(2.64159e-17 -7.27688e-17 2.02739)
(-1.22546e-17 -5.12915e-17 1.96251)
(-4.22025e-17 -3.20681e-17 1.89511)
(-7.65397e-18 -4.09858e-17 1.82476)
(3.07827e-17 -4.59226e-17 1.75094)
(2.37164e-17 -2.82515e-17 1.67302)
(1.1e-17 -1.06183e-17 1.59026)
(1.12806e-17 -6.28674e-19 1.50175)
(1.54014e-17 6.5388e-18 1.40642)
(2.40265e-17 8.46554e-18 1.30302)
(3.43798e-17 7.97872e-18 1.19021)
(3.90003e-17 1.06574e-17 1.06683)
(3.54372e-17 1.54301e-17 0.932632)
(2.29943e-17 2.2043e-17 0.78975)
(7.31898e-18 2.8897e-17 0.643859)
(7.34174e-19 2.84486e-17 0.502507)
(6.03276e-18 2.01038e-17 0.371158)
(6.53871e-18 1.49614e-17 0.251673)
(6.03553e-18 1.27863e-17 0.143717)
(-1.15151e-19 -2.80125e-19 0.0462634)
(-1.3923e-16 -1.75378e-16 2.60017)
(-1.48743e-16 -1.94445e-16 2.55059)
(-9.51194e-17 -2.26694e-16 2.49945)
(-2.26068e-17 -1.90213e-16 2.44695)
(3.34742e-17 -1.55544e-16 2.3932)
(7.011e-17 -1.54366e-16 2.33823)
(1.83816e-17 -1.22192e-16 2.28202)
(-1.01404e-16 -1.10638e-16 2.2245)
(-9.82661e-17 -1.21252e-16 2.16553)
(-4.99423e-17 -1.35832e-16 2.10493)
(-5.6354e-17 -1.24418e-16 2.04247)
(-8.39487e-17 -1.06581e-16 1.97788)
(-9.02272e-17 -8.99451e-17 1.91079)
(-5.5529e-17 -9.45294e-17 1.84079)
(-2.67018e-17 -1.04999e-16 1.76736)
(-4.65608e-17 -9.51315e-17 1.68989)
(-7.05717e-17 -8.08089e-17 1.60763)
(-6.16974e-17 -7.92245e-17 1.51967)
(-5.69397e-17 -7.74718e-17 1.42492)
(-7.07263e-17 -6.88297e-17 1.32211)
(-6.52676e-17 -6.89172e-17 1.20984)
(-5.83568e-17 -6.80102e-17 1.0868)
(-6.68512e-17 -5.84768e-17 0.952468)
(-6.43617e-17 -5.21249e-17 0.80855)
(-4.87399e-17 -4.96624e-17 0.660446)
(-3.47955e-17 -4.50116e-17 0.515984)
(-2.53805e-17 -3.68767e-17 0.381256)
(-1.7126e-17 -2.70898e-17 0.258545)
(-8.98901e-18 -1.47332e-17 0.147645)
(-4.37966e-18 -8.34235e-18 0.0475296)
(-1.59758e-16 -9.08631e-17 2.61069)
(-1.24959e-16 -1.51401e-16 2.56141)
(4.86676e-17 -1.5346e-16 2.51052)
(1.21174e-16 -1.60814e-16 2.45822)
(3.21534e-17 -1.70477e-16 2.40465)
(-2.56431e-17 -1.56431e-16 2.34985)
(-5.07807e-17 -1.91449e-16 2.2938)
(-8.16956e-17 -2.024e-16 2.23644)
(-4.40093e-17 -2.00842e-16 2.17764)
(1.76927e-17 -2.14256e-16 2.11722)
(2.6353e-17 -2.12824e-16 2.05497)
(2.24103e-17 -1.99605e-16 1.99059)
(7.5092e-18 -1.81539e-16 1.92376)
(-1.86096e-17 -1.66531e-16 1.85404)
(-2.74947e-17 -1.66241e-16 1.78093)
(-2.81983e-17 -1.69581e-16 1.70382)
(-2.67573e-17 -1.72209e-16 1.62197)
(-4.13692e-17 -1.66255e-16 1.53445)
(-6.568e-17 -1.58426e-16 1.44018)
(-8.00771e-17 -1.52287e-16 1.33787)
(-6.99987e-17 -1.53245e-16 1.22607)
(-5.16462e-17 -1.55696e-16 1.10335)
(-5.01221e-17 -1.49346e-16 0.968968)
(-5.212e-17 -1.36581e-16 0.824287)
(-4.61292e-17 -1.21724e-16 0.674427)
(-3.71039e-17 -1.04133e-16 0.527398)
(-2.93209e-17 -8.39725e-17 0.389825)
(-2.12922e-17 -6.27632e-17 0.26438)
(-1.3135e-17 -3.96368e-17 0.150981)
(-4.10195e-18 -1.43773e-17 0.0486048)
(-2.64672e-16 -5.92584e-17 2.61907)
(-9.88692e-17 -3.8841e-17 2.57003)
(4.21988e-17 -1.45853e-17 2.51933)
(-2.82843e-17 -1.26938e-17 2.4672)
(-9.31942e-18 -5.68054e-17 2.41377)
(-5.74405e-19 -7.09263e-17 2.35911)
(-7.76397e-17 -4.30904e-17 2.30319)
(-3.50276e-17 -2.21706e-17 2.24595)
(4.36909e-17 -5.57319e-18 2.18728)
(7.27188e-17 -2.06015e-19 2.127)
(9.84279e-17 -3.94403e-19 2.06491)
(1.11309e-16 -4.00767e-19 2.00071)
(7.73287e-17 1.20542e-17 1.93406)
(3.76747e-17 2.72551e-17 1.86457)
(3.15794e-17 3.405e-17 1.79171)
(3.48632e-17 3.84508e-17 1.71489)
(4.86251e-17 4.18101e-17 1.63335)
(6.41204e-17 4.31955e-17 1.54618)
(6.20667e-17 4.76173e-17 1.4523)
(5.26134e-17 5.21642e-17 1.35039)
(4.15922e-17 5.4613e-17 1.23895)
(2.72176e-17 5.49753e-17 1.11651)
(1.93848e-17 5.07553e-17 0.982138)
(2.4389e-17 4.11058e-17 0.836912)
(2.54342e-17 3.18939e-17 0.685706)
(1.9481e-17 2.4204e-17 0.536644)
(1.07507e-17 1.73572e-17 0.39678)
(4.4334e-18 1.05333e-17 0.269118)
(1.12467e-18 4.13586e-18 0.15369)
(-2.75539e-19 1.8669e-18 0.0494779)
(-1.19661e-16 -1.00766e-16 2.62533)
(-1.76632e-17 2.76905e-17 2.57647)
(5.21596e-17 -2.67533e-17 2.52593)
(-1.87414e-17 -3.595e-17 2.47392)
(-1.12259e-16 -1.32289e-17 2.4206)
(-9.76641e-17 -3.85279e-17 2.36603)
(-3.21272e-17 -4.93304e-17 2.3102)
(-2.16651e-17 -3.57265e-17 2.25306)
(-7.23406e-17 3.26925e-18 2.19449)
(-1.27911e-16 2.86162e-17 2.13431)
(-1.70498e-16 5.19613e-17 2.07233)
(-1.8008e-16 6.08686e-17 2.00826)
(-1.72076e-16 6.68515e-17 1.94176)
(-1.6696e-16 7.77815e-17 1.87243)
(-1.43123e-16 8.41794e-17 1.79976)
(-9.25611e-17 8.13503e-17 1.72314)
(-4.94226e-17 7.99942e-17 1.64183)
(-4.36121e-17 8.41724e-17 1.55493)
(-5.1891e-17 8.92786e-17 1.46133)
(-5.17039e-17 9.11435e-17 1.35971)
(-3.84789e-17 8.77719e-17 1.24857)
(-2.28438e-17 8.1947e-17 1.12634)
(-1.41893e-17 7.50806e-17 0.991994)
(-1.85336e-18 6.4668e-17 0.846397)
(5.49985e-18 5.30246e-17 0.694218)
(5.13084e-18 4.19692e-17 0.543646)
(4.87296e-18 3.07055e-17 0.402054)
(5.03748e-18 1.91344e-17 0.272712)
(3.19989e-18 7.69049e-18 0.155745)
(1.84993e-18 5.04703e-18 0.0501404)
(-6.12106e-17 -1.88084e-16 2.62949)
(-5.82378e-17 -1.54765e-16 2.58076)
(-1.04886e-16 -1.56496e-16 2.53031)
(-9.49473e-17 -1.19092e-16 2.47839)
(-9.49202e-17 -1.06728e-16 2.42514)
(-1.19718e-16 -8.35427e-17 2.37064)
(-1.41867e-16 -1.09713e-16 2.31487)
(-4.54748e-17 -1.34624e-16 2.25779)
(8.37069e-18 -1.4349e-16 2.19928)
(-1.23794e-17 -1.3829e-16 2.13917)
(-2.60743e-17 -1.32616e-16 2.07726)
(-4.39128e-17 -1.22836e-16 2.01327)
(-4.86744e-17 -1.20651e-16 1.94687)
(-6.88245e-17 -1.14921e-16 1.87764)
(-9.98916e-17 -1.08018e-16 1.80509)
(-1.02511e-16 -1.07014e-16 1.72861)
(-7.3444e-17 -1.14674e-16 1.64746)
(-4.80811e-17 -1.19842e-16 1.56073)
(-3.29815e-17 -1.22389e-16 1.46732)
(-2.70371e-17 -1.22783e-16 1.3659)
(-1.99089e-17 -1.22576e-16 1.25495)
(-1.14089e-17 -1.21456e-16 1.13287)
(-1.27476e-17 -1.16672e-16 0.998554)
(-1.37452e-17 -1.08586e-16 0.852726)
(-1.22495e-17 -9.73852e-17 0.699917)
(-9.90473e-18 -8.28895e-17 0.548344)
(-9.18499e-18 -6.59437e-17 0.405597)
(-7.5724e-18 -4.87014e-17 0.275127)
(-5.14872e-18 -3.20597e-17 0.157127)
(-1.09738e-18 -8.47692e-18 0.0505856)
(-8.49711e-17 -1.71554e-16 2.63156)
(-8.90671e-18 -1.6703e-16 2.5829)
(9.63365e-17 -1.26407e-16 2.5325)
(5.91806e-17 -9.53889e-17 2.48062)
(-3.06412e-17 -9.13258e-17 2.42741)
(-8.72425e-17 -7.98285e-17 2.37294)
(-7.45363e-17 -2.83171e-17 2.3172)
(1.60982e-17 1.08108e-17 2.26015)
(3.66103e-17 5.64059e-18 2.20167)
(2.82821e-17 1.25717e-17 2.1416)
(2.39714e-17 1.17684e-17 2.07973)
(6.74724e-18 1.43125e-17 2.01578)
(1.02653e-18 1.07365e-17 1.94942)
(1.50098e-17 7.93273e-18 1.88025)
(1.86853e-17 1.11255e-17 1.80776)
(8.38149e-18 1.47605e-17 1.73135)
(2.75506e-17 1.76119e-17 1.65027)
(5.09989e-17 2.05861e-17 1.56362)
(4.40389e-17 2.58385e-17 1.47031)
(2.42239e-17 3.07353e-17 1.36899)
(4.23369e-18 3.43788e-17 1.25813)
(-3.75048e-18 3.52718e-17 1.13613)
(-3.07621e-18 3.44369e-17 1.00183)
(-3.57741e-18 3.21766e-17 0.855892)
(-3.88658e-18 2.85823e-17 0.702773)
(-2.38598e-20 2.37391e-17 0.550703)
(2.27084e-18 1.82611e-17 0.407377)
(2.23935e-18 1.2165e-17 0.276341)
(2.02049e-18 4.97164e-18 0.157821)
(-2.57248e-19 4.05144e-18 0.0508093)
(3.45218e-17 -1.07437e-16 2.63156)
(2.13804e-17 -6.93405e-17 2.5829)
(4.02328e-18 -1.0662e-16 2.5325)
(-4.77165e-17 -1.65569e-16 2.48062)
(-7.2356e-17 -1.59112e-16 2.42741)
(2.30718e-17 -1.30174e-16 2.37294)
(8.611e-17 -6.89865e-17 2.3172)
(3.92805e-17 -4.36636e-17 2.26015)
(4.30991e-18 -5.96699e-17 2.20167)
(-2.09773e-17 -6.19428e-17 2.1416)
(-5.32304e-17 -5.8244e-17 2.07973)
(-8.74664e-17 -5.49657e-17 2.01578)
(-1.05652e-16 -5.427e-17 1.94942)
(-8.09532e-17 -5.31987e-17 1.88025)
(-8.03252e-17 -4.87521e-17 1.80776)
(-8.30131e-17 -4.41547e-17 1.73135)
(-5.51252e-17 -3.77055e-17 1.65027)
(-2.04231e-17 -3.40686e-17 1.56362)
(-3.85787e-18 -3.22587e-17 1.47031)
(-1.28948e-17 -3.1874e-17 1.36899)
(-2.36923e-17 -3.19346e-17 1.25813)
(-2.32165e-17 -3.14909e-17 1.13613)
(-1.72202e-17 -3.03045e-17 1.00183)
(-1.29326e-17 -2.85274e-17 0.855892)
(-1.0631e-17 -2.59733e-17 0.702773)
(-6.80035e-18 -2.25423e-17 0.550703)
(-3.62965e-18 -1.86748e-17 0.407377)
(-1.81908e-18 -1.44455e-17 0.276341)
(-1.03566e-18 -9.81875e-18 0.157821)
(-1.13377e-19 -3.16677e-18 0.0508093)
(9.44827e-17 -1.61841e-16 2.62949)
(6.39495e-18 -1.39995e-16 2.58076)
(-2.31998e-17 -1.50071e-16 2.53031)
(5.38863e-18 -1.66995e-16 2.47839)
(4.25832e-17 -1.1516e-16 2.42514)
(1.00118e-16 -7.92938e-17 2.37064)
(1.04338e-16 -8.30448e-17 2.31487)
(-4.82424e-18 -9.09553e-17 2.25779)
(-5.28404e-17 -1.02794e-16 2.19928)
(-2.1091e-18 -1.10321e-16 2.13917)
(9.16313e-18 -1.10902e-16 2.07726)
(-2.64974e-17 -1.16963e-16 2.01327)
(-5.11855e-17 -1.17936e-16 1.94687)
(-1.65501e-17 -1.12415e-16 1.87764)
(1.37818e-17 -1.09156e-16 1.80509)
(1.3868e-17 -1.02047e-16 1.72861)
(1.62983e-17 -9.79958e-17 1.64746)
(1.19977e-17 -9.68921e-17 1.56073)
(2.13417e-18 -9.75716e-17 1.46732)
(-1.12789e-17 -9.87305e-17 1.3659)
(-2.16451e-17 -9.84753e-17 1.25495)
(-1.50446e-17 -9.44662e-17 1.13287)
(-1.72987e-18 -8.79979e-17 0.998554)
(3.19901e-18 -7.97585e-17 0.852726)
(3.33701e-18 -6.98489e-17 0.699917)
(3.2383e-18 -5.8172e-17 0.548344)
(2.52233e-18 -4.53286e-17 0.405597)
(2.26469e-18 -3.16912e-17 0.275127)
(2.49585e-18 -1.76468e-17 0.157127)
(-2.73699e-19 -7.15111e-18 0.0505856)
(8.8523e-17 -4.38064e-17 2.62533)
(4.36412e-17 -3.45129e-17 2.57647)
(-2.66095e-17 -1.06289e-16 2.52593)
(1.60173e-17 -6.97552e-17 2.47392)
(7.40043e-17 -4.746e-17 2.4206)
(6.57908e-17 -5.26701e-17 2.36603)
(7.15198e-17 -8.27718e-17 2.3102)
(1.01733e-17 -1.23656e-16 2.25306)
(-6.40218e-17 -1.43684e-16 2.19449)
(-5.81522e-17 -1.45036e-16 2.13431)
(-4.7434e-17 -1.46783e-16 2.07233)
(-6.13673e-17 -1.43749e-16 2.00826)
(-6.1892e-17 -1.33465e-16 1.94176)
(-4.79269e-17 -1.21401e-16 1.87243)
(-1.01012e-17 -1.09614e-16 1.79976)
(6.32445e-18 -1.02835e-16 1.72314)
(-3.09885e-18 -1.00268e-16 1.64183)
(4.75161e-18 -9.45302e-17 1.55493)
(9.26165e-18 -8.93192e-17 1.46133)
(2.8437e-18 -8.74924e-17 1.35971)
(-1.62228e-19 -8.37636e-17 1.24857)
(2.97362e-18 -7.70166e-17 1.12634)
(1.1425e-17 -6.81367e-17 0.991994)
(1.43775e-17 -5.91101e-17 0.846397)
(1.04797e-17 -5.05451e-17 0.694218)
(7.30592e-18 -4.1243e-17 0.543646)
(4.47927e-18 -3.1519e-17 0.402054)
(2.59677e-18 -2.16442e-17 0.272712)
(1.72808e-18 -1.23228e-17 0.155745)
(9.59038e-19 -3.975e-18 0.0501404)
(5.84286e-17 -7.05024e-17 2.61907)
(-6.76894e-17 -1.73842e-16 2.57003)
(-6.00595e-17 -1.93352e-16 2.51933)
(5.41341e-17 -1.33681e-16 2.4672)
(2.9804e-17 -1.21008e-16 2.41377)
(2.08896e-18 -1.27229e-16 2.35911)
(-4.32916e-17 -1.29972e-16 2.30319)
(-7.01524e-17 -1.4356e-16 2.24595)
(-2.7825e-17 -1.28635e-16 2.18728)
(5.01212e-17 -1.16855e-16 2.127)
(1.09353e-16 -1.05965e-16 2.06491)
(1.4117e-16 -9.78158e-17 2.00071)
(1.3902e-16 -9.26684e-17 1.93406)
(1.41521e-16 -8.55765e-17 1.86457)
(1.36329e-16 -8.30726e-17 1.79171)
(1.30037e-16 -8.45102e-17 1.71489)
(1.28092e-16 -8.20486e-17 1.63335)
(1.13246e-16 -8.50925e-17 1.54618)
(7.78267e-17 -9.46952e-17 1.4523)
(4.61482e-17 -1.01024e-16 1.35039)
(4.17479e-17 -9.70856e-17 1.23895)
(4.6037e-17 -9.02158e-17 1.11651)
(4.32632e-17 -8.38729e-17 0.982138)
(3.39068e-17 -7.75871e-17 0.836912)
(2.43385e-17 -6.88685e-17 0.685706)
(1.71655e-17 -5.76359e-17 0.536644)
(1.3291e-17 -4.46522e-17 0.39678)
(8.71212e-18 -3.18259e-17 0.269118)
(5.26219e-18 -1.96925e-17 0.15369)
(1.18491e-18 -5.18647e-18 0.0494779)