/*--------------------------------*- C++ -*----------------------------------*\
| =========                 |                                                 |
| \\      /  F ield         | OpenFOAM: The Open Source CFD Toolbox           |
|  \\    /   O peration     | Version:  2306                                  |
|   \\  /    A nd           | Website:  www.openfoam.com                      |
|    \\/     M anipulation  |                                                 |
\*---------------------------------------------------------------------------*/
FoamFile
{
    version     2.0;
    format      ascii;
    arch        "LSB;label=32;scalar=64";
    class       volScalarField;
    location    "2197";
    object      k;
}
// * * * * * * * * * * * * * * * * * * * * * * * * * * * * * * * * * * * * * //

dimensions      [0 2 -2 0 0 0 0];

internalField   nonuniform List<scalar> 
2800
(
0.0232247
0.0226446
0.0221557
0.0217171
0.0213275
0.0209937
0.0207212
0.0205137
0.0203739
0.0203036
0.0203036
0.020374
0.0205137
0.0207213
0.0209938
0.0213276
0.0217172
0.0221558
0.0226448
0.0232249
0.0226422
0.0219461
0.0213327
0.0207848
0.0202994
0.0198819
0.0195391
0.0192768
0.0190995
0.0190101
0.0190101
0.0190995
0.0192768
0.0195392
0.019882
0.0202996
0.020785
0.0213329
0.0219463
0.0226423
0.0221542
0.0213324
0.0205884
0.0199243
0.0193397
0.0188381
0.0184261
0.0181104
0.0178967
0.0177889
0.0177889
0.0178968
0.0181105
0.0184262
0.0188382
0.0193398
0.0199245
0.0205886
0.0213326
0.0221543
0.0217154
0.020784
0.019924
0.0191497
0.0184675
0.0178829
0.0174032
0.0170355
0.0167865
0.0166608
0.0166609
0.0167866
0.0170356
0.0174033
0.0178831
0.0184677
0.0191499
0.0199242
0.0207842
0.0217156
0.0213259
0.0202983
0.019339
0.0184672
0.0176953
0.0170328
0.0164888
0.0160718
0.0157893
0.0156467
0.0156467
0.0157894
0.0160719
0.0164889
0.017033
0.0176955
0.0184674
0.0193392
0.0202985
0.0213261
0.0209923
0.0198807
0.0188372
0.0178824
0.0170325
0.0163008
0.015699
0.0152372
0.0149243
0.0147662
0.0147662
0.0149244
0.0152374
0.0156991
0.0163011
0.0170328
0.0178826
0.0188374
0.0198809
0.0209925
0.0207201
0.0195379
0.0184251
0.0174025
0.0164883
0.0156988
0.0150479
0.014548
0.0142088
0.0140375
0.0140375
0.0142089
0.0145481
0.0150481
0.015699
0.0164886
0.0174027
0.0184254
0.0195382
0.0207203
0.0205129
0.0192758
0.0181095
0.0170348
0.0160713
0.0152369
0.0145478
0.0140179
0.0136581
0.0134763
0.0134763
0.0136582
0.014018
0.014548
0.0152372
0.0160715
0.0170351
0.0181098
0.0192761
0.0205132
0.0203734
0.0190987
0.0178958
0.0167858
0.0157887
0.0149238
0.0142086
0.013658
0.0132842
0.0130954
0.0130954
0.0132843
0.0136582
0.0142088
0.0149241
0.015789
0.0167861
0.0178961
0.0190989
0.0203736
0.0203032
0.0190094
0.017788
0.01666
0.015646
0.0147657
0.0140372
0.0134761
0.0130953
0.0129032
0.0129033
0.0130954
0.0134763
0.0140374
0.014766
0.0156463
0.0166604
0.0177883
0.0190097
0.0203035
0.0203032
0.0190094
0.0177881
0.0166601
0.0156461
0.0147657
0.0140372
0.0134762
0.0130954
0.0129033
0.0129033
0.0130955
0.0134764
0.0140374
0.014766
0.0156464
0.0166604
0.0177884
0.0190097
0.0203035
0.0203734
0.0190987
0.0178959
0.0167858
0.0157888
0.0149239
0.0142087
0.0136581
0.0132843
0.0130955
0.0130955
0.0132845
0.0136583
0.0142089
0.0149242
0.0157891
0.0167862
0.0178962
0.019099
0.0203737
0.020513
0.0192759
0.0181096
0.0170349
0.0160714
0.0152371
0.014548
0.014018
0.0136583
0.0134765
0.0134766
0.0136584
0.0140182
0.0145482
0.0152373
0.0160717
0.0170352
0.0181099
0.0192762
0.0205133
0.0207202
0.019538
0.0184253
0.0174026
0.0164885
0.015699
0.0150481
0.0145482
0.0142091
0.0140377
0.0140378
0.0142092
0.0145484
0.0150484
0.0156992
0.0164888
0.0174029
0.0184256
0.0195383
0.0207205
0.0209924
0.0198808
0.0188373
0.0178826
0.0170327
0.0163011
0.0156992
0.0152375
0.0149246
0.0147665
0.0147665
0.0149247
0.0152377
0.0156994
0.0163013
0.017033
0.0178829
0.0188376
0.0198811
0.0209927
0.021326
0.0202984
0.0193391
0.0184674
0.0176955
0.017033
0.016489
0.0160721
0.0157896
0.015647
0.0156471
0.0157897
0.0160723
0.0164892
0.0170333
0.0176958
0.0184677
0.0193394
0.0202987
0.0213262
0.0217156
0.0207841
0.0199242
0.01915
0.0184677
0.0178832
0.0174035
0.0170359
0.0167869
0.0166612
0.0166612
0.016787
0.017036
0.0174036
0.0178834
0.018468
0.0191502
0.0199244
0.0207844
0.0217158
0.0221543
0.0213326
0.0205886
0.0199246
0.0193399
0.0188383
0.0184264
0.0181107
0.017897
0.0177892
0.0177892
0.0178971
0.0181109
0.0184265
0.0188385
0.0193401
0.0199248
0.0205889
0.0213329
0.0221545
0.0226423
0.0219463
0.0213329
0.020785
0.0202997
0.0198822
0.0195393
0.0192771
0.0190998
0.0190104
0.0190104
0.0190998
0.0192772
0.0195395
0.0198823
0.0202999
0.0207852
0.0213332
0.0219465
0.0226426
0.0232249
0.0226448
0.0221559
0.0217173
0.0213278
0.020994
0.0207214
0.020514
0.0203742
0.0203039
0.0203039
0.0203743
0.020514
0.0207215
0.0209941
0.0213279
0.0217175
0.0221561
0.022645
0.0232251
0.0239633
0.0249718
0.0259102
0.0267563
0.0275014
0.0281416
0.0286748
0.0290984
0.0294091
0.0296013
0.0296655
0.0295873
0.0293456
0.0289119
0.0282484
0.0273063
0.0260247
0.0243325
0.0221562
0.0194402
0.0161794
0.0124328
0.00852015
0.00503816
0.00252304
0.00105715
0.000356366
8.63316e-05
1.13284e-05
3.88228e-07
0.0234826
0.0245622
0.0255391
0.0264187
0.0271977
0.0278731
0.0284426
0.0289037
0.0292531
0.0294859
0.0295943
0.0295654
0.0293804
0.0290125
0.0284255
0.0275727
0.0263943
0.0248184
0.0227664
0.0201701
0.0170019
0.0132998
0.00931261
0.00562302
0.00285752
0.00120589
0.000407499
9.87735e-05
1.29615e-05
4.44189e-07
0.0230703
0.0241921
0.025208
0.0261219
0.0269332
0.0276404
0.028242
0.0287359
0.0291192
0.0293874
0.0295342
0.0295476
0.029411
0.0290988
0.0285767
0.0277994
0.0267085
0.0252322
0.0232886
0.0208002
0.0177219
0.0140739
0.0100421
0.00618157
0.00318658
0.00135451
0.000458862
0.000111283
1.46031e-05
5.00418e-07
0.0227129
0.0238615
0.0249087
0.0258532
0.0266941
0.0274304
0.028061
0.0285844
0.0289981
0.029298
0.0294783
0.0295285
0.0294329
0.0291677
0.0287001
0.0279861
0.0269689
0.0255771
0.0237269
0.021334
0.0183398
0.0147497
0.0106962
0.00669942
0.00350063
0.00149865
0.000508971
0.000123504
1.62074e-05
5.55363e-07
0.0224039
0.0235732
0.0246448
0.0256146
0.0264809
0.0272425
0.0278985
0.0284478
0.0288879
0.0292153
0.0294244
0.029506
0.0294448
0.0292189
0.0287966
0.0281352
0.0271794
0.0258581
0.024087
0.0217765
0.0188578
0.0153244
0.011265
0.0071631
0.00378943
0.00163328
0.000556044
0.000135001
1.77169e-05
6.0706e-07
0.0221429
0.023329
0.0244197
0.0254098
0.0262968
0.0270794
0.0277566
0.0283274
0.0287895
0.0291395
0.0293721
0.029479
0.0294456
0.0292512
0.0288651
0.0282459
0.0273393
0.0260751
0.0243684
0.0221262
0.0192716
0.0157856
0.0117318
0.00755457
0.00403957
0.00175167
0.00059768
0.000145185
1.90542e-05
6.52858e-07
0.0219313
0.0231306
0.0242362
0.0252421
0.0261454
0.0269445
0.0276386
0.0282263
0.0287057
0.0290735
0.0293246
0.0294512
0.0294393
0.0292692
0.0289111
0.0283246
0.0274561
0.0262364
0.0245803
0.0223925
0.0195897
0.0161413
0.0120988
0.00786955
0.00424528
0.00185034
0.000632561
0.000153727
2.01762e-05
6.91282e-07
0.0217707
0.02298
0.0240965
0.0251141
0.0260293
0.0268407
0.0275473
0.0281477
0.0286401
0.0290212
0.029286
0.0294273
0.0294314
0.0292794
0.0289421
0.0283797
0.0275396
0.0263529
0.0247344
0.0225875
0.0198243
0.0164058
0.0123745
0.00810987
0.00440472
0.0019276
0.000659981
0.000160449
2.10593e-05
7.21521e-07
0.0216628
0.0228786
0.0240024
0.0250276
0.0259508
0.0267704
0.0274852
0.0280941
0.0285951
0.0289851
0.0292592
0.0294102
0.0294251
0.0292849
0.0289613
0.028415
0.0275935
0.0264286
0.024835
0.0227154
0.0199788
0.0165811
0.0125587
0.00827203
0.00451352
0.00198071
0.00067889
0.000165088
2.16688e-05
7.42392e-07
0.0216086
0.0228277
0.023955
0.024984
0.0259112
0.0267348
0.0274538
0.0280669
0.0285723
0.0289667
0.0292455
0.0294014
0.0294216
0.0292874
0.0289707
0.0284322
0.02762
0.0264659
0.0248848
0.0227787
0.0200556
0.0166684
0.0126508
0.00835369
0.00456868
0.00200777
0.00068854
0.000167456
2.198e-05
7.53049e-07
0.0216086
0.0228277
0.023955
0.024984
0.0259112
0.0267348
0.0274538
0.0280669
0.0285723
0.0289667
0.0292455
0.0294014
0.0294216
0.0292875
0.0289707
0.0284322
0.02762
0.0264659
0.0248848
0.0227787
0.0200556
0.0166684
0.0126508
0.0083537
0.00456869
0.00200777
0.00068854
0.000167456
2.198e-05
7.53049e-07
0.0216629
0.0228787
0.0240024
0.0250276
0.0259508
0.0267704
0.0274852
0.0280941
0.0285951
0.0289851
0.0292592
0.0294102
0.0294251
0.029285
0.0289614
0.028415
0.0275935
0.0264286
0.0248351
0.0227154
0.0199789
0.0165811
0.0125587
0.00827204
0.00451353
0.00198071
0.000678891
0.000165088
2.16688e-05
7.42393e-07
0.0217708
0.0229801
0.0240966
0.0251141
0.0260294
0.0268408
0.0275473
0.0281477
0.0286401
0.0290212
0.0292861
0.0294273
0.0294315
0.0292794
0.0289421
0.0283798
0.0275396
0.0263529
0.0247344
0.0225875
0.0198243
0.0164059
0.0123746
0.00810989
0.00440473
0.0019276
0.000659983
0.000160449
2.10594e-05
7.21523e-07
0.0219314
0.0231307
0.0242363
0.0252422
0.0261454
0.0269446
0.0276386
0.0282264
0.0287058
0.0290736
0.0293246
0.0294512
0.0294393
0.0292692
0.0289112
0.0283247
0.0274562
0.0262365
0.0245803
0.0223926
0.0195898
0.0161414
0.0120988
0.00786957
0.0042453
0.00185035
0.000632564
0.000153728
2.01763e-05
6.91285e-07
0.0221431
0.0233291
0.0244198
0.0254099
0.0262969
0.0270795
0.0277567
0.0283275
0.0287895
0.0291396
0.0293722
0.0294791
0.0294457
0.0292513
0.0288651
0.028246
0.0273393
0.0260752
0.0243684
0.0221263
0.0192716
0.0157856
0.0117319
0.0075546
0.00403959
0.00175168
0.000597683
0.000145185
1.90543e-05
6.52861e-07
0.0224041
0.0235733
0.0246449
0.0256148
0.026481
0.0272426
0.0278986
0.0284479
0.028888
0.0292154
0.0294245
0.0295061
0.0294449
0.029219
0.0287966
0.0281353
0.0271794
0.0258582
0.024087
0.0217766
0.0188578
0.0153245
0.011265
0.00716313
0.00378944
0.00163329
0.000556047
0.000135002
1.7717e-05
6.07063e-07
0.022713
0.0238617
0.0249089
0.0258534
0.0266942
0.0274305
0.0280612
0.0285845
0.0289982
0.0292981
0.0294784
0.0295286
0.029433
0.0291678
0.0287002
0.0279862
0.026969
0.0255772
0.023727
0.0213341
0.0183399
0.0147498
0.0106963
0.00669947
0.00350066
0.00149866
0.000508975
0.000123505
1.62075e-05
5.55367e-07
0.0230705
0.0241923
0.0252082
0.026122
0.0269333
0.0276405
0.0282421
0.0287361
0.0291193
0.0293875
0.0295343
0.0295478
0.0294111
0.029099
0.0285769
0.0277995
0.0267086
0.0252323
0.0232887
0.0208003
0.017722
0.0140739
0.0100422
0.00618161
0.00318661
0.00135452
0.000458866
0.000111284
1.46032e-05
5.00422e-07
0.0234828
0.0245624
0.0255393
0.0264189
0.0271978
0.0278732
0.0284427
0.0289038
0.0292532
0.029486
0.0295944
0.0295655
0.0293805
0.0290126
0.0284257
0.0275728
0.0263944
0.0248185
0.0227665
0.0201702
0.017002
0.0132999
0.00931267
0.00562306
0.00285754
0.0012059
0.000407503
9.87743e-05
1.29616e-05
4.44192e-07
0.0239635
0.024972
0.0259104
0.0267565
0.0275016
0.0281418
0.0286749
0.0290985
0.0294093
0.0296015
0.0296656
0.0295874
0.0293457
0.028912
0.0282485
0.0273064
0.0260248
0.0243326
0.0221563
0.0194403
0.0161795
0.0124329
0.00852021
0.0050382
0.00252306
0.00105716
0.00035637
8.63324e-05
1.13285e-05
3.88231e-07
0.0239731
0.0249842
0.0259242
0.0267717
0.0275177
0.0281585
0.0286916
0.029115
0.0294254
0.0296169
0.0296802
0.0296009
0.0293579
0.0289232
0.0282589
0.0273163
0.0260345
0.0243422
0.0221658
0.0194497
0.0161884
0.0124409
0.00852676
0.00504287
0.00252584
0.00105851
0.000356881
8.64713e-05
1.13488e-05
3.88959e-07
0.0234838
0.0245646
0.0255418
0.0264216
0.0272007
0.027876
0.0284453
0.0289062
0.0292555
0.0294881
0.0295964
0.0295672
0.029382
0.029014
0.0284269
0.0275737
0.0263948
0.0248181
0.0227651
0.0201675
0.0169981
0.013295
0.00930765
0.00561912
0.00285525
0.0012049
0.000407177
9.87014e-05
1.29531e-05
4.43897e-07
0.0230705
0.0241917
0.0252073
0.026121
0.0269322
0.0276394
0.028241
0.028735
0.0291185
0.0293868
0.0295337
0.0295472
0.0294106
0.0290983
0.0285759
0.0277981
0.0267063
0.0252288
0.0232839
0.0207938
0.017714
0.0140649
0.0100332
0.00617453
0.00318237
0.00135261
0.000458217
0.00011113
1.45839e-05
4.99752e-07
0.0227126
0.0238606
0.0249074
0.0258517
0.0266925
0.0274288
0.0280596
0.0285832
0.0289971
0.0292972
0.0294777
0.029528
0.0294323
0.0291669
0.0286988
0.0279842
0.0269661
0.025573
0.0237214
0.021327
0.0183312
0.0147399
0.0106864
0.00669146
0.00349573
0.0014964
0.000508193
0.000123318
1.61834e-05
5.54533e-07
0.0224037
0.0235723
0.0246435
0.0256132
0.0264795
0.0272412
0.0278975
0.0284469
0.0288873
0.0292149
0.0294242
0.0295057
0.0294445
0.0292183
0.0287955
0.0281336
0.0271768
0.0258545
0.0240821
0.0217702
0.0188501
0.0153156
0.011256
0.00715564
0.0037847
0.00163107
0.000555274
0.000134815
1.76928e-05
6.06224e-07
0.0221429
0.0233283
0.0244187
0.0254087
0.0262958
0.0270785
0.0277559
0.0283269
0.0287892
0.0291393
0.0293721
0.029479
0.0294455
0.0292509
0.0288644
0.0282448
0.0273375
0.0260725
0.0243648
0.0221215
0.0192658
0.015779
0.0117249
0.0075486
0.00403569
0.00174982
0.00059703
0.000145027
1.90337e-05
6.52142e-07
0.0219314
0.0231301
0.0242354
0.0252412
0.0261445
0.0269438
0.027638
0.0282259
0.0287055
0.0290735
0.0293246
0.0294512
0.0294393
0.029269
0.0289107
0.0283239
0.0274549
0.0262347
0.0245778
0.0223892
0.0195856
0.0161366
0.0120937
0.00786506
0.0042423
0.0018489
0.000632052
0.000153603
2.01599e-05
6.90711e-07
0.021771
0.0229796
0.0240959
0.0251133
0.0260286
0.0268401
0.0275468
0.0281474
0.0286399
0.0290211
0.029286
0.0294273
0.0294315
0.0292794
0.0289419
0.0283794
0.0275389
0.0263519
0.0247329
0.0225854
0.0198217
0.0164027
0.0123712
0.00810682
0.00440265
0.00192658
0.00065962
0.00016036
2.10476e-05
7.21106e-07
0.0216631
0.0228784
0.0240018
0.0250268
0.0259501
0.0267697
0.0274847
0.0280937
0.0285948
0.028985
0.0292592
0.0294103
0.0294252
0.0292851
0.0289614
0.0284149
0.0275933
0.0264281
0.0248343
0.0227142
0.0199773
0.0165792
0.0125565
0.00827007
0.00451217
0.00198004
0.000678649
0.000165028
2.16608e-05
7.42104e-07
0.0216089
0.0228274
0.0239544
0.0249833
0.0259104
0.0267341
0.0274532
0.0280665
0.028572
0.0289666
0.0292455
0.0294015
0.0294218
0.0292876
0.0289708
0.0284323
0.02762
0.0264657
0.0248844
0.022778
0.0200546
0.0166672
0.0126494
0.00835233
0.00456773
0.00200728
0.000688366
0.000167413
2.19741e-05
7.52832e-07
0.0216089
0.0228274
0.0239544
0.0249833
0.0259104
0.0267341
0.0274532
0.0280665
0.028572
0.0289666
0.0292455
0.0294015
0.0294218
0.0292876
0.0289708
0.0284323
0.02762
0.0264657
0.0248844
0.022778
0.0200546
0.0166672
0.0126494
0.00835232
0.00456772
0.00200728
0.000688365
0.000167413
2.19741e-05
7.52832e-07
0.0216631
0.0228783
0.0240018
0.0250268
0.02595
0.0267697
0.0274846
0.0280936
0.0285948
0.0289849
0.0292592
0.0294103
0.0294252
0.029285
0.0289614
0.0284149
0.0275932
0.0264281
0.0248342
0.0227142
0.0199773
0.0165792
0.0125565
0.00827006
0.00451216
0.00198004
0.000678648
0.000165028
2.16608e-05
7.42103e-07
0.0217709
0.0229796
0.0240958
0.0251132
0.0260285
0.02684
0.0275467
0.0281473
0.0286398
0.0290211
0.029286
0.0294273
0.0294315
0.0292794
0.0289419
0.0283794
0.0275389
0.0263518
0.0247328
0.0225854
0.0198216
0.0164027
0.0123711
0.0081068
0.00440264
0.00192658
0.000659618
0.00016036
2.10475e-05
7.21103e-07
0.0219313
0.02313
0.0242353
0.0252411
0.0261445
0.0269437
0.0276379
0.0282259
0.0287055
0.0290734
0.0293245
0.0294511
0.0294392
0.029269
0.0289107
0.0283238
0.0274549
0.0262346
0.0245778
0.0223892
0.0195856
0.0161365
0.0120936
0.00786504
0.00424229
0.00184889
0.000632049
0.000153602
2.01599e-05
6.90708e-07
0.0221427
0.0233282
0.0244186
0.0254086
0.0262957
0.0270784
0.0277559
0.0283268
0.0287891
0.0291393
0.029372
0.0294789
0.0294455
0.0292508
0.0288644
0.0282447
0.0273374
0.0260725
0.0243647
0.0221215
0.0192657
0.0157789
0.0117248
0.00754857
0.00403567
0.00174981
0.000597027
0.000145026
1.90336e-05
6.52139e-07
0.0224036
0.0235722
0.0246434
0.0256131
0.0264794
0.0272411
0.0278974
0.0284468
0.0288872
0.0292148
0.0294241
0.0295056
0.0294444
0.0292182
0.0287954
0.0281335
0.0271767
0.0258545
0.024082
0.0217701
0.0188501
0.0153156
0.011256
0.00715561
0.00378469
0.00163106
0.000555271
0.000134815
1.76927e-05
6.06221e-07
0.0227124
0.0238605
0.0249073
0.0258515
0.0266923
0.0274287
0.0280595
0.0285831
0.028997
0.0292971
0.0294776
0.0295279
0.0294322
0.0291668
0.0286987
0.0279841
0.026966
0.0255729
0.0237214
0.0213269
0.0183312
0.0147399
0.0106864
0.00669143
0.0034957
0.00149639
0.00050819
0.000123317
1.61833e-05
5.54529e-07
0.0230703
0.0241916
0.0252072
0.0261208
0.026932
0.0276393
0.0282409
0.0287349
0.0291183
0.0293867
0.0295336
0.0295471
0.0294105
0.0290982
0.0285758
0.027798
0.0267062
0.0252287
0.0232838
0.0207937
0.017714
0.0140648
0.0100332
0.00617449
0.00318235
0.0013526
0.000458214
0.000111129
1.45838e-05
4.99748e-07
0.0234837
0.0245644
0.0255417
0.0264215
0.0272005
0.0278758
0.0284451
0.0289061
0.0292553
0.029488
0.0295962
0.0295671
0.0293819
0.0290139
0.0284268
0.0275736
0.0263947
0.024818
0.022765
0.0201674
0.016998
0.0132949
0.00930759
0.00561908
0.00285523
0.00120489
0.000407174
9.87006e-05
1.2953e-05
4.43893e-07
0.0239729
0.024984
0.0259241
0.0267715
0.0275176
0.0281583
0.0286915
0.0291149
0.0294253
0.0296168
0.0296801
0.0296008
0.0293578
0.0289231
0.0282588
0.0273162
0.0260344
0.0243421
0.0221657
0.0194496
0.0161883
0.0124408
0.0085267
0.00504283
0.00252582
0.0010585
0.000356878
8.64706e-05
1.13487e-05
3.88956e-07
0.0239633
0.0249718
0.0259102
0.0267563
0.0275014
0.0281416
0.0286748
0.0290984
0.0294091
0.0296013
0.0296655
0.0295873
0.0293456
0.0289119
0.0282484
0.0273063
0.0260247
0.0243325
0.0221562
0.0194402
0.0161794
0.0124328
0.00852015
0.00503816
0.00252304
0.00105715
0.000356367
8.63317e-05
1.13284e-05
3.88228e-07
0.0234826
0.0245622
0.0255391
0.0264187
0.0271977
0.0278731
0.0284425
0.0289037
0.029253
0.0294859
0.0295943
0.0295653
0.0293804
0.0290125
0.0284255
0.0275727
0.0263943
0.0248184
0.0227664
0.0201701
0.0170019
0.0132998
0.00931261
0.00562302
0.00285751
0.00120589
0.000407499
9.87735e-05
1.29615e-05
4.44188e-07
0.0230703
0.0241921
0.025208
0.0261218
0.0269331
0.0276404
0.028242
0.0287359
0.0291192
0.0293874
0.0295342
0.0295476
0.029411
0.0290988
0.0285767
0.0277994
0.0267085
0.0252322
0.0232886
0.0208002
0.0177219
0.0140738
0.0100421
0.00618156
0.00318658
0.00135451
0.000458861
0.000111283
1.46031e-05
5.00417e-07
0.0227128
0.0238615
0.0249087
0.0258532
0.0266941
0.0274303
0.028061
0.0285844
0.028998
0.0292979
0.0294782
0.0295285
0.0294328
0.0291677
0.0287
0.0279861
0.0269689
0.025577
0.0237269
0.021334
0.0183398
0.0147497
0.0106962
0.00669941
0.00350062
0.00149865
0.000508969
0.000123504
1.62073e-05
5.55361e-07
0.0224039
0.0235731
0.0246447
0.0256146
0.0264808
0.0272424
0.0278985
0.0284477
0.0288878
0.0292152
0.0294244
0.0295059
0.0294448
0.0292189
0.0287965
0.0281352
0.0271793
0.0258581
0.0240869
0.0217764
0.0188577
0.0153244
0.0112649
0.00716307
0.00378941
0.00163327
0.000556041
0.000135001
1.77168e-05
6.07057e-07
0.0221428
0.0233289
0.0244196
0.0254098
0.0262967
0.0270793
0.0277566
0.0283273
0.0287894
0.0291394
0.0293721
0.0294789
0.0294456
0.0292511
0.028865
0.0282459
0.0273392
0.0260751
0.0243683
0.0221262
0.0192715
0.0157855
0.0117318
0.00755454
0.00403955
0.00175166
0.000597677
0.000145184
1.90541e-05
6.52854e-07
0.0219311
0.0231305
0.0242361
0.025242
0.0261453
0.0269444
0.0276385
0.0282262
0.0287056
0.0290734
0.0293245
0.0294511
0.0294392
0.0292691
0.028911
0.0283245
0.0274561
0.0262364
0.0245802
0.0223925
0.0195897
0.0161413
0.0120987
0.00786951
0.00424526
0.00185033
0.000632558
0.000153726
2.01761e-05
6.91278e-07
0.0217706
0.0229798
0.0240964
0.0251139
0.0260292
0.0268406
0.0275472
0.0281476
0.02864
0.0290211
0.0292859
0.0294272
0.0294313
0.0292793
0.028942
0.0283797
0.0275395
0.0263528
0.0247343
0.0225874
0.0198242
0.0164057
0.0123745
0.00810982
0.00440469
0.00192758
0.000659977
0.000160448
2.10591e-05
7.21516e-07
0.0216626
0.0228785
0.0240022
0.0250274
0.0259507
0.0267702
0.027485
0.0280939
0.028595
0.028985
0.0292591
0.0294101
0.029425
0.0292848
0.0289612
0.0284149
0.0275934
0.0264285
0.024835
0.0227153
0.0199788
0.016581
0.0125586
0.00827198
0.00451349
0.0019807
0.000678886
0.000165087
2.16686e-05
7.42387e-07
0.0216084
0.0228275
0.0239548
0.0249838
0.025911
0.0267347
0.0274536
0.0280667
0.0285721
0.0289666
0.0292454
0.0294013
0.0294215
0.0292873
0.0289705
0.0284321
0.0276199
0.0264658
0.0248847
0.0227786
0.0200556
0.0166684
0.0126508
0.00835365
0.00456866
0.00200775
0.000688535
0.000167455
2.19798e-05
7.53044e-07
0.0216083
0.0228275
0.0239548
0.0249838
0.025911
0.0267346
0.0274536
0.0280667
0.0285721
0.0289666
0.0292454
0.0294013
0.0294215
0.0292873
0.0289705
0.0284321
0.0276199
0.0264658
0.0248847
0.0227786
0.0200555
0.0166684
0.0126508
0.00835365
0.00456866
0.00200775
0.000688535
0.000167455
2.19798e-05
7.53043e-07
0.0216626
0.0228784
0.0240022
0.0250274
0.0259506
0.0267702
0.027485
0.0280939
0.0285949
0.0289849
0.029259
0.0294101
0.0294249
0.0292848
0.0289612
0.0284149
0.0275934
0.0264285
0.0248349
0.0227153
0.0199788
0.016581
0.0125586
0.00827197
0.00451348
0.00198069
0.000678885
0.000165087
2.16686e-05
7.42386e-07
0.0217705
0.0229798
0.0240964
0.0251139
0.0260292
0.0268406
0.0275471
0.0281476
0.02864
0.0290211
0.0292859
0.0294271
0.0294313
0.0292793
0.0289419
0.0283796
0.0275395
0.0263528
0.0247343
0.0225874
0.0198242
0.0164057
0.0123745
0.00810981
0.00440468
0.00192758
0.000659975
0.000160448
2.10591e-05
7.21515e-07
0.0219311
0.0231304
0.024236
0.025242
0.0261452
0.0269444
0.0276384
0.0282262
0.0287056
0.0290734
0.0293244
0.029451
0.0294392
0.0292691
0.028911
0.0283245
0.027456
0.0262363
0.0245802
0.0223925
0.0195897
0.0161413
0.0120987
0.0078695
0.00424525
0.00185033
0.000632556
0.000153726
2.01761e-05
6.91276e-07
0.0221427
0.0233288
0.0244195
0.0254097
0.0262967
0.0270792
0.0277565
0.0283272
0.0287893
0.0291393
0.029372
0.0294789
0.0294455
0.0292511
0.028865
0.0282458
0.0273392
0.026075
0.0243683
0.0221262
0.0192715
0.0157855
0.0117317
0.00755452
0.00403954
0.00175166
0.000597675
0.000145184
1.90541e-05
6.52853e-07
0.0224037
0.023573
0.0246446
0.0256145
0.0264807
0.0272423
0.0278984
0.0284476
0.0288878
0.0292152
0.0294243
0.0295059
0.0294447
0.0292188
0.0287964
0.0281351
0.0271792
0.025858
0.0240869
0.0217764
0.0188577
0.0153243
0.0112649
0.00716305
0.00378939
0.00163326
0.000556039
0.000135
1.77167e-05
6.07055e-07
0.0227127
0.0238614
0.0249086
0.0258531
0.026694
0.0274303
0.0280609
0.0285843
0.0289979
0.0292978
0.0294782
0.0295284
0.0294328
0.0291676
0.0287
0.027986
0.0269688
0.025577
0.0237269
0.021334
0.0183397
0.0147496
0.0106962
0.00669938
0.0035006
0.00149864
0.000508967
0.000123503
1.62073e-05
5.55359e-07
0.0230701
0.024192
0.0252079
0.0261217
0.026933
0.0276403
0.0282419
0.0287358
0.0291191
0.0293873
0.0295341
0.0295475
0.0294109
0.0290987
0.0285767
0.0277993
0.0267084
0.0252321
0.0232886
0.0208001
0.0177218
0.0140738
0.0100421
0.00618153
0.00318656
0.0013545
0.000458859
0.000111282
1.4603e-05
5.00414e-07
0.0234825
0.024562
0.025539
0.0264186
0.0271976
0.027873
0.0284424
0.0289036
0.0292529
0.0294858
0.0295942
0.0295652
0.0293803
0.0290124
0.0284254
0.0275726
0.0263942
0.0248183
0.0227663
0.02017
0.0170018
0.0132997
0.00931256
0.00562298
0.00285749
0.00120588
0.000407496
9.87728e-05
1.29614e-05
4.44185e-07
0.0239632
0.0249717
0.0259101
0.0267562
0.0275013
0.0281415
0.0286746
0.0290983
0.029409
0.0296012
0.0296654
0.0295872
0.0293455
0.0289118
0.0282483
0.0273062
0.0260246
0.0243324
0.0221561
0.0194401
0.0161794
0.0124328
0.00852011
0.00503813
0.00252302
0.00105715
0.000356364
8.6331e-05
1.13283e-05
3.88225e-07
0.0239728
0.0249839
0.0259239
0.0267714
0.0275174
0.0281582
0.0286914
0.0291148
0.0294251
0.0296166
0.02968
0.0296006
0.0293577
0.028923
0.0282587
0.0273161
0.0260343
0.024342
0.0221656
0.0194495
0.0161883
0.0124408
0.00852665
0.0050428
0.0025258
0.00105849
0.000356876
8.647e-05
1.13487e-05
3.88953e-07
0.0234835
0.0245642
0.0255415
0.0264213
0.0272004
0.0278757
0.028445
0.028906
0.0292552
0.0294878
0.0295961
0.0295669
0.0293818
0.0290137
0.0284266
0.0275735
0.0263946
0.0248179
0.0227649
0.0201673
0.0169979
0.0132948
0.00930752
0.00561904
0.0028552
0.00120488
0.00040717
9.86997e-05
1.29528e-05
4.43889e-07
0.0230701
0.0241914
0.025207
0.0261207
0.0269319
0.0276391
0.0282408
0.0287348
0.0291182
0.0293866
0.0295335
0.029547
0.0294104
0.0290981
0.0285757
0.0277978
0.0267061
0.0252286
0.0232837
0.0207936
0.0177139
0.0140647
0.0100331
0.00617444
0.00318232
0.00135259
0.000458209
0.000111128
1.45837e-05
4.99743e-07
0.0227122
0.0238603
0.0249071
0.0258514
0.0266922
0.0274286
0.0280594
0.028583
0.0289968
0.029297
0.0294774
0.0295278
0.0294321
0.0291667
0.0286986
0.027984
0.0269659
0.0255728
0.0237212
0.0213268
0.0183311
0.0147398
0.0106863
0.00669137
0.00349567
0.00149637
0.000508185
0.000123316
1.61832e-05
5.54524e-07
0.0224034
0.023572
0.0246432
0.0256129
0.0264792
0.027241
0.0278972
0.0284467
0.0288871
0.0292147
0.0294239
0.0295055
0.0294443
0.0292181
0.0287953
0.0281334
0.0271766
0.0258543
0.0240819
0.02177
0.0188499
0.0153155
0.0112559
0.00715555
0.00378465
0.00163104
0.000555266
0.000134813
1.76925e-05
6.06215e-07
0.0221425
0.0233279
0.0244184
0.0254085
0.0262955
0.0270782
0.0277557
0.0283266
0.0287889
0.0291391
0.0293719
0.0294788
0.0294453
0.0292507
0.0288642
0.0282446
0.0273373
0.0260723
0.0243646
0.0221214
0.0192656
0.0157788
0.0117248
0.00754851
0.00403564
0.0017498
0.000597022
0.000145025
1.90334e-05
6.52133e-07
0.021931
0.0231298
0.0242351
0.025241
0.0261443
0.0269436
0.0276378
0.0282257
0.0287053
0.0290732
0.0293244
0.029451
0.0294391
0.0292689
0.0289106
0.0283237
0.0274548
0.0262345
0.0245777
0.0223891
0.0195855
0.0161364
0.0120936
0.00786499
0.00424226
0.00184888
0.000632044
0.000153601
2.01597e-05
6.90702e-07
0.0217706
0.0229793
0.0240956
0.025113
0.0260283
0.0268399
0.0275466
0.0281471
0.0286397
0.0290209
0.0292858
0.0294271
0.0294313
0.0292792
0.0289418
0.0283792
0.0275388
0.0263517
0.0247327
0.0225853
0.0198215
0.0164026
0.012371
0.00810672
0.00440259
0.00192656
0.000659611
0.000160358
2.10473e-05
7.21096e-07
0.0216628
0.0228781
0.0240015
0.0250266
0.0259498
0.0267695
0.0274844
0.0280935
0.0285946
0.0289848
0.029259
0.0294101
0.029425
0.0292849
0.0289612
0.0284148
0.0275931
0.0264279
0.0248341
0.022714
0.0199771
0.0165791
0.0125564
0.00826998
0.00451211
0.00198001
0.00067864
0.000165026
2.16605e-05
7.42095e-07
0.0216086
0.0228272
0.0239542
0.0249831
0.0259102
0.0267339
0.027453
0.0280663
0.0285718
0.0289664
0.0292453
0.0294013
0.0294216
0.0292875
0.0289707
0.0284322
0.0276198
0.0264656
0.0248842
0.0227779
0.0200545
0.0166671
0.0126493
0.00835225
0.00456767
0.00200726
0.000688357
0.000167411
2.19738e-05
7.52823e-07
0.0216086
0.0228272
0.0239542
0.0249831
0.0259102
0.026734
0.027453
0.0280663
0.0285718
0.0289664
0.0292453
0.0294013
0.0294216
0.0292875
0.0289707
0.0284322
0.0276198
0.0264656
0.0248843
0.0227779
0.0200545
0.0166671
0.0126493
0.00835225
0.00456768
0.00200726
0.000688358
0.000167411
2.19738e-05
7.52824e-07
0.0216628
0.0228781
0.0240016
0.0250266
0.0259499
0.0267695
0.0274845
0.0280935
0.0285947
0.0289848
0.029259
0.0294101
0.0294251
0.0292849
0.0289613
0.0284148
0.0275931
0.026428
0.0248341
0.0227141
0.0199772
0.0165791
0.0125564
0.00826999
0.00451212
0.00198002
0.000678641
0.000165026
2.16605e-05
7.42096e-07
0.0217707
0.0229794
0.0240956
0.0251131
0.0260284
0.0268399
0.0275466
0.0281472
0.0286397
0.029021
0.0292859
0.0294272
0.0294314
0.0292793
0.0289418
0.0283793
0.0275388
0.0263517
0.0247327
0.0225853
0.0198215
0.0164026
0.0123711
0.00810674
0.0044026
0.00192656
0.000659612
0.000160358
2.10473e-05
7.21098e-07
0.0219311
0.0231299
0.0242352
0.025241
0.0261443
0.0269436
0.0276378
0.0282258
0.0287054
0.0290733
0.0293244
0.0294511
0.0294391
0.0292689
0.0289106
0.0283238
0.0274548
0.0262345
0.0245777
0.0223891
0.0195855
0.0161365
0.0120936
0.007865
0.00424227
0.00184888
0.000632046
0.000153601
2.01597e-05
6.90704e-07
0.0221426
0.023328
0.0244185
0.0254085
0.0262956
0.0270783
0.0277558
0.0283267
0.028789
0.0291392
0.0293719
0.0294788
0.0294454
0.0292507
0.0288643
0.0282447
0.0273374
0.0260724
0.0243647
0.0221214
0.0192657
0.0157789
0.0117248
0.00754854
0.00403565
0.0017498
0.000597024
0.000145026
1.90335e-05
6.52136e-07
0.0224035
0.0235721
0.0246433
0.025613
0.0264793
0.027241
0.0278973
0.0284468
0.0288871
0.0292147
0.029424
0.0295056
0.0294443
0.0292182
0.0287954
0.0281334
0.0271767
0.0258544
0.024082
0.0217701
0.01885
0.0153155
0.011256
0.00715558
0.00378467
0.00163105
0.000555268
0.000134814
1.76926e-05
6.06218e-07
0.0227123
0.0238604
0.0249072
0.0258515
0.0266923
0.0274286
0.0280594
0.028583
0.0289969
0.029297
0.0294775
0.0295278
0.0294321
0.0291667
0.0286986
0.027984
0.0269659
0.0255729
0.0237213
0.0213268
0.0183311
0.0147398
0.0106863
0.0066914
0.00349569
0.00149638
0.000508187
0.000123316
1.61833e-05
5.54527e-07
0.0230702
0.0241915
0.0252071
0.0261208
0.026932
0.0276392
0.0282408
0.0287349
0.0291183
0.0293866
0.0295336
0.0295471
0.0294104
0.0290982
0.0285758
0.0277979
0.0267062
0.0252287
0.0232837
0.0207937
0.0177139
0.0140648
0.0100332
0.00617447
0.00318234
0.0013526
0.000458212
0.000111129
1.45837e-05
4.99746e-07
0.0234836
0.0245644
0.0255416
0.0264215
0.0272005
0.0278758
0.0284451
0.028906
0.0292553
0.0294879
0.0295962
0.029567
0.0293819
0.0290138
0.0284267
0.0275736
0.0263946
0.024818
0.022765
0.0201674
0.016998
0.0132949
0.00930758
0.00561907
0.00285522
0.00120489
0.000407173
9.87004e-05
1.29529e-05
4.43892e-07
0.0239729
0.024984
0.025924
0.0267715
0.0275175
0.0281583
0.0286915
0.0291149
0.0294252
0.0296167
0.0296801
0.0296007
0.0293578
0.0289231
0.0282588
0.0273162
0.0260344
0.0243421
0.0221657
0.0194496
0.0161883
0.0124408
0.0085267
0.00504283
0.00252582
0.0010585
0.000356878
8.64706e-05
1.13487e-05
3.88956e-07
)
;

boundaryField
{
    walls
    {
        type            fixedValue;
        value           uniform 1e-10;
    }
    inlet
    {
        type            cyclic;
    }
    outlet
    {
        type            cyclic;
    }
}


// ************************************************************************* //
