/*--------------------------------*- C++ -*----------------------------------*\
| =========                 |                                                 |
| \\      /  F ield         | OpenFOAM: The Open Source CFD Toolbox           |
|  \\    /   O peration     | Version:  2306                                  |
|   \\  /    A nd           | Website:  www.openfoam.com                      |
|    \\/     M anipulation  |                                                 |
\*---------------------------------------------------------------------------*/
FoamFile
{
    version     2.0;
    format      ascii;
    arch        "LSB;label=32;scalar=64";
    class       volScalarField;
    location    "2197";
    object      nut;
}
// * * * * * * * * * * * * * * * * * * * * * * * * * * * * * * * * * * * * * //

dimensions      [0 2 -1 0 0 0 0];

internalField   nonuniform List<scalar> 
2800
(
0.00663167
0.00813182
0.0086958
0.00896529
0.00913109
0.00926721
0.00937452
0.00945402
0.00950655
0.00953267
0.00953268
0.00950659
0.00945409
0.00937462
0.00926733
0.00913122
0.00896543
0.00869594
0.00813195
0.00663178
0.00816438
0.00884718
0.00911224
0.0093404
0.00953263
0.00968992
0.00981359
0.00990497
0.00996522
0.00999514
0.00999517
0.00996529
0.00990508
0.00981373
0.00969008
0.00953281
0.00934059
0.00911243
0.00884736
0.00816453
0.0087296
0.0091127
0.0094093
0.00966222
0.00987379
0.010046
0.0101808
0.0102801
0.0103454
0.0103778
0.0103778
0.0103455
0.0102802
0.010181
0.0100462
0.00987402
0.00966245
0.00940953
0.00911293
0.00872979
0.00896622
0.00934104
0.00966248
0.00993414
0.0101595
0.0103416
0.0104833
0.0105872
0.0106554
0.0106891
0.0106892
0.0106555
0.0105874
0.0104835
0.0103418
0.0101597
0.00993441
0.00966276
0.00934131
0.00896645
0.0091319
0.00953323
0.00987414
0.0101596
0.0103943
0.0105825
0.010728
0.0108343
0.0109037
0.010938
0.0109381
0.0109038
0.0108345
0.0107283
0.0105828
0.0103946
0.0101599
0.00987445
0.00953353
0.00913216
0.00926787
0.00969042
0.0100463
0.0103417
0.0105825
0.0107741
0.0109215
0.0110285
0.0110982
0.0111326
0.0111327
0.0110983
0.0110287
0.0109217
0.0107745
0.0105829
0.0103421
0.0100467
0.00969076
0.00926815
0.00937505
0.00981399
0.0101811
0.0104834
0.0107281
0.0109215
0.0110693
0.0111762
0.0112456
0.0112797
0.0112798
0.0112457
0.0111764
0.0110696
0.0109218
0.0107285
0.0104838
0.0101815
0.00981434
0.00937533
0.00945444
0.00990527
0.0102803
0.0105873
0.0108343
0.0110285
0.0111762
0.0112824
0.011351
0.0113846
0.0113847
0.0113513
0.0112827
0.0111766
0.0110289
0.0108347
0.0105878
0.0102807
0.00990564
0.00945474
0.00950689
0.00996545
0.0103455
0.0106554
0.0109037
0.0110982
0.0112456
0.011351
0.0114183
0.0114508
0.0114508
0.0114185
0.0113514
0.011246
0.0110986
0.0109041
0.0106559
0.0103459
0.00996583
0.0095072
0.00953298
0.00999534
0.0103778
0.0106891
0.010938
0.0111326
0.0112797
0.0113846
0.0114508
0.0114815
0.0114816
0.0114509
0.0113849
0.0112801
0.011133
0.0109385
0.0106896
0.0103783
0.00999573
0.00953329
0.00953299
0.00999536
0.0103779
0.0106892
0.0109381
0.0111326
0.0112798
0.0113847
0.0114508
0.0114816
0.0114816
0.011451
0.011385
0.0112802
0.011133
0.0109385
0.0106896
0.0103783
0.00999576
0.00953332
0.00950694
0.00996552
0.0103456
0.0106555
0.0109038
0.0110983
0.0112457
0.0113513
0.0114185
0.0114509
0.011451
0.0114187
0.0113516
0.0112461
0.0110987
0.0109043
0.010656
0.010346
0.00996592
0.00950727
0.00945452
0.00990538
0.0102804
0.0105875
0.0108345
0.0110288
0.0111765
0.0112827
0.0113514
0.0113849
0.011385
0.0113515
0.011283
0.0111768
0.0110291
0.0108349
0.0105879
0.0102809
0.00990579
0.00945485
0.00937516
0.00981414
0.0101813
0.0104837
0.0107284
0.0109218
0.0110696
0.0111766
0.011246
0.0112801
0.0112802
0.0112461
0.0111768
0.0110699
0.0109222
0.0107288
0.0104841
0.0101817
0.00981453
0.00937548
0.00926801
0.00969061
0.0100466
0.010342
0.0105828
0.0107745
0.0109219
0.0110289
0.0110987
0.0111331
0.0111331
0.0110988
0.0110291
0.0109221
0.0107748
0.0105832
0.0103424
0.010047
0.00969099
0.00926833
0.00913207
0.00953344
0.00987439
0.0101599
0.0103946
0.0105828
0.0107285
0.0108347
0.0109042
0.0109385
0.0109386
0.0109043
0.0108349
0.0107287
0.0105832
0.010395
0.0101603
0.00987477
0.0095338
0.00913237
0.00896639
0.00934126
0.00966274
0.00993444
0.0101598
0.0103419
0.0104837
0.0105877
0.0106558
0.0106896
0.0106896
0.010656
0.0105879
0.010484
0.0103423
0.0101601
0.0099348
0.0096631
0.0093416
0.00896668
0.00872976
0.00911292
0.00940956
0.00966251
0.00987413
0.0100464
0.0101812
0.0102805
0.0103458
0.0103782
0.0103783
0.0103459
0.0102807
0.0101815
0.0100467
0.00987444
0.00966284
0.00940988
0.00911323
0.00873
0.00816452
0.00884738
0.00911248
0.00934068
0.00953294
0.00969027
0.00981397
0.00990538
0.00996564
0.00999558
0.00999561
0.00996573
0.00990552
0.00981416
0.0096905
0.0095332
0.00934096
0.00911277
0.00884766
0.00816472
0.00663179
0.00813198
0.008696
0.00896552
0.00913135
0.0092675
0.00937483
0.00945435
0.00950689
0.00953302
0.00953305
0.00950696
0.00945446
0.00937498
0.00926768
0.00913156
0.00896574
0.0086962
0.00813216
0.00663194
0.00782861
0.00727105
0.00670162
0.00613545
0.00558157
0.00504598
0.00453284
0.00404499
0.00358435
0.00314895
0.0027381
0.00235659
0.0020056
0.00168513
0.00139491
0.00113464
0.000904029
0.000702652
0.000529828
0.000384607
0.000264754
0.000162699
8.61597e-05
3.75239e-05
1.28161e-05
3.28756e-06
5.89835e-07
6.26471e-08
2.62476e-09
1.55811e-11
0.00808757
0.00751272
0.00693458
0.00636004
0.00579658
0.00525014
0.00472516
0.00422482
0.00375131
0.00330604
0.00288683
0.00249111
0.00212523
0.00179052
0.00148686
0.00121387
0.00097122
0.000758521
0.000575131
0.000420261
0.000291971
0.000184154
9.99405e-05
4.46942e-05
1.56113e-05
4.06206e-06
7.33708e-07
7.81041e-08
3.2739e-09
1.94361e-11
0.00830184
0.00772417
0.00714103
0.00656008
0.00598871
0.00543304
0.00489781
0.00438651
0.00390159
0.00344467
0.00301675
0.0026098
0.00223192
0.00188534
0.0015702
0.00128617
0.00103295
0.000810192
0.000617376
0.000453789
0.000317834
0.000204727
0.000113474
5.19686e-05
1.8539e-05
4.8913e-06
8.89417e-07
9.48934e-08
3.97943e-09
2.36247e-11
0.00848202
0.00790555
0.00732018
0.00673478
0.00615719
0.00559392
0.00505004
0.00452938
0.00403465
0.0035677
0.0031297
0.0027151
0.00232733
0.00197046
0.00164525
0.00135152
0.00108896
0.000857278
0.000656056
0.000484658
0.000341825
0.000223912
0.000126341
5.90822e-05
2.14877e-05
5.74453e-06
1.05139e-06
1.12426e-07
4.71687e-09
2.80025e-11
0.00863265
0.00805854
0.00747238
0.00688393
0.00630157
0.00573218
0.00518119
0.00465273
0.00414977
0.00367435
0.00322781
0.00280668
0.0024105
0.00204485
0.00171101
0.00140893
0.00113832
0.000898931
0.000690416
0.000512206
0.000363368
0.000241216
0.00013813
6.57582e-05
2.43289e-05
6.58314e-06
1.21225e-06
1.29905e-07
5.45266e-09
3.23703e-11
0.00875608
0.00818449
0.00759827
0.00700777
0.00642178
0.00584756
0.00529087
0.00475606
0.00424635
0.00376394
0.00331029
0.00288394
0.00248077
0.00210777
0.00176669
0.0014576
0.00118023
0.000934351
0.00071969
0.000535697
0.000381658
0.000255349
0.000148328
7.16657e-05
2.69049e-05
7.3576e-06
1.36227e-06
1.46264e-07
6.14188e-09
3.64615e-11
0.00885353
0.00828431
0.00769839
0.00710651
0.00651786
0.00593996
0.00537882
0.00483905
0.004324
0.00383604
0.00337672
0.00294631
0.00253757
0.00215866
0.00181175
0.00149701
0.00121419
0.000963081
0.000743447
0.000554783
0.000396449
0.00026636
0.000156703
7.66091e-05
2.91045e-05
8.02944e-06
1.49353e-06
1.60622e-07
6.74726e-09
4.00549e-11
0.00892587
0.00835863
0.00777312
0.00718038
0.00658985
0.00600928
0.00544489
0.00490143
0.00438242
0.00389033
0.00342678
0.00299281
0.00258034
0.0021971
0.00184583
0.00152685
0.00123994
0.000984902
0.000761523
0.000569351
0.000407778
0.000274832
0.00016318
8.04783e-05
3.08515e-05
8.56947e-06
1.59975e-06
1.7227e-07
7.23867e-09
4.29717e-11
0.00897373
0.00840791
0.00782277
0.00722953
0.0066378
0.0060555
0.00548897
0.00494309
0.00442145
0.00392662
0.00346027
0.00302349
0.00260889
0.00222287
0.00186871
0.0015469
0.00125726
0.000999598
0.000773716
0.000579197
0.000415451
0.000280588
0.000167594
8.31366e-05
3.20643e-05
8.94769e-06
1.67451e-06
1.80484e-07
7.58535e-09
4.50294e-11
0.00899756
0.00843248
0.00784754
0.00725407
0.00666176
0.00607861
0.00551102
0.00496393
0.004441
0.0039448
0.00347706
0.00303887
0.00262319
0.0022358
0.00188019
0.00155697
0.00126597
0.00100699
0.000779858
0.000584161
0.000419325
0.000283499
0.000169831
8.44899e-05
3.26856e-05
9.14247e-06
1.71313e-06
1.84732e-07
7.76468e-09
4.60939e-11
0.00899758
0.00843249
0.00784755
0.00725408
0.00666177
0.00607862
0.00551103
0.00496394
0.004441
0.0039448
0.00347706
0.00303887
0.00262319
0.0022358
0.0018802
0.00155697
0.00126597
0.00100699
0.000779858
0.000584162
0.000419325
0.000283499
0.000169831
8.44899e-05
3.26856e-05
9.14248e-06
1.71313e-06
1.84732e-07
7.76469e-09
4.60939e-11
0.00897378
0.00840795
0.0078228
0.00722955
0.00663782
0.00605552
0.00548898
0.00494309
0.00442146
0.00392662
0.00346028
0.00302349
0.00260889
0.00222288
0.00186871
0.0015469
0.00125726
0.000999599
0.000773717
0.000579197
0.000415451
0.000280588
0.000167595
8.31367e-05
3.20643e-05
8.94771e-06
1.67451e-06
1.80484e-07
7.58536e-09
4.50295e-11
0.00892595
0.00835869
0.00777317
0.00718042
0.00658988
0.00600931
0.00544491
0.00490144
0.00438243
0.00389033
0.00342679
0.00299281
0.00258034
0.00219711
0.00184584
0.00152685
0.00123994
0.000984904
0.000761524
0.000569352
0.000407779
0.000274833
0.000163181
8.04785e-05
3.08516e-05
8.5695e-06
1.59975e-06
1.72271e-07
7.2387e-09
4.29719e-11
0.00885364
0.0082844
0.00769845
0.00710656
0.0065179
0.00593999
0.00537884
0.00483906
0.00432401
0.00383605
0.00337673
0.00294631
0.00253757
0.00215866
0.00181175
0.00149701
0.00121419
0.000963082
0.000743448
0.000554784
0.00039645
0.00026636
0.000156703
7.66094e-05
2.91046e-05
8.02947e-06
1.49354e-06
1.60623e-07
6.74729e-09
4.00551e-11
0.00875622
0.0081846
0.00759836
0.00700783
0.00642183
0.0058476
0.00529089
0.00475609
0.00424637
0.00376396
0.0033103
0.00288395
0.00248078
0.00210777
0.00176669
0.0014576
0.00118023
0.000934352
0.000719691
0.000535698
0.000381659
0.00025535
0.000148328
7.16659e-05
2.6905e-05
7.35763e-06
1.36228e-06
1.46264e-07
6.14191e-09
3.64617e-11
0.00863281
0.00805866
0.00747248
0.00688401
0.00630163
0.00573222
0.00518123
0.00465276
0.0041498
0.00367437
0.00322782
0.00280669
0.00241051
0.00204486
0.00171101
0.00140893
0.00113833
0.000898933
0.000690417
0.000512207
0.000363368
0.000241216
0.000138131
6.57584e-05
2.43291e-05
6.58318e-06
1.21226e-06
1.29906e-07
5.45269e-09
3.23705e-11
0.0084822
0.00790568
0.00732028
0.00673486
0.00615725
0.00559396
0.00505008
0.00452941
0.00403467
0.00356771
0.00312972
0.00271511
0.00232734
0.00197047
0.00164526
0.00135152
0.00108896
0.000857281
0.000656059
0.00048466
0.000341826
0.000223913
0.000126342
5.90825e-05
2.14878e-05
5.74457e-06
1.0514e-06
1.12427e-07
4.71691e-09
2.80027e-11
0.00830203
0.00772432
0.00714114
0.00656016
0.00598877
0.00543309
0.00489784
0.00438654
0.00390161
0.00344468
0.00301677
0.00260981
0.00223193
0.00188535
0.0015702
0.00128618
0.00103295
0.000810196
0.000617378
0.000453791
0.000317836
0.000204728
0.000113475
5.1969e-05
1.85391e-05
4.89134e-06
8.89424e-07
9.48941e-08
3.97946e-09
2.36248e-11
0.00808777
0.00751287
0.0069347
0.00636013
0.00579664
0.00525018
0.00472519
0.00422485
0.00375133
0.00330605
0.00288684
0.00249112
0.00212523
0.00179053
0.00148687
0.00121388
0.000971223
0.000758523
0.000575133
0.000420263
0.000291972
0.000184155
9.99411e-05
4.46945e-05
1.56114e-05
4.06209e-06
7.33714e-07
7.81048e-08
3.27393e-09
1.94362e-11
0.00782881
0.0072712
0.00670174
0.00613554
0.00558163
0.00504603
0.00453287
0.00404501
0.00358436
0.00314896
0.00273811
0.00235659
0.00200561
0.00168514
0.00139491
0.00113464
0.000904032
0.000702654
0.00052983
0.000384609
0.000264755
0.0001627
8.61602e-05
3.75242e-05
1.28162e-05
3.28759e-06
5.89841e-07
6.26477e-08
2.62479e-09
1.55813e-11
0.00782584
0.00726901
0.00670001
0.00613413
0.00558048
0.00504506
0.004532
0.00404414
0.00358169
0.00314399
0.00273451
0.0023545
0.00200447
0.00168452
0.00139455
0.00113442
0.000903882
0.00070255
0.000529761
0.000384568
0.000264737
0.000162699
8.61696e-05
3.75344e-05
1.28223e-05
3.28984e-06
5.90369e-07
6.27173e-08
2.62827e-09
1.5601e-11
0.00808505
0.00751036
0.0069325
0.00635814
0.00579479
0.00524843
0.00472351
0.00422325
0.00374983
0.00330466
0.00288612
0.00249045
0.0021245
0.00178976
0.0014861
0.00121316
0.000970583
0.000757977
0.000574687
0.000419913
0.000291708
0.000183955
9.98139e-05
4.46285e-05
1.55859e-05
4.05512e-06
7.32453e-07
7.7975e-08
3.26875e-09
1.94031e-11
0.00829956
0.00772188
0.00713876
0.00655784
0.00598649
0.00543085
0.00489567
0.00438444
0.00389962
0.00344282
0.00301504
0.00260827
0.00223049
0.00188401
0.001569
0.00128512
0.00103205
0.000809444
0.000616768
0.00045331
0.000317467
0.00020444
0.000113284
5.18656e-05
1.84972e-05
4.87945e-06
8.8721e-07
9.46596e-08
3.96981e-09
2.35652e-11
0.00848037
0.00790362
0.0073181
0.00673261
0.00615497
0.00559169
0.00504784
0.00452725
0.00403262
0.00356579
0.00312793
0.0027134
0.00232576
0.00196905
0.001644
0.00135043
0.00108803
0.000856504
0.000655422
0.000484154
0.000341433
0.0002236
0.000126131
5.89647e-05
2.14385e-05
5.73021e-06
1.04868e-06
1.12136e-07
4.70479e-09
2.79285e-11
0.00863134
0.00805696
0.0074706
0.00688202
0.00629958
0.00573016
0.0051792
0.0046508
0.00414793
0.00367263
0.0032262
0.00280512
0.00240907
0.00204357
0.00170989
0.00140796
0.00113749
0.000898232
0.000689839
0.000511745
0.000363006
0.000240926
0.000137932
6.56444e-05
2.428e-05
6.5686e-06
1.20946e-06
1.29603e-07
5.44005e-09
3.22933e-11
0.00875504
0.00818323
0.00759683
0.00700619
0.00642012
0.00584588
0.0052892
0.00475445
0.00424482
0.00376251
0.00330896
0.00288264
0.00247958
0.00210671
0.00176577
0.0014568
0.00117955
0.000933779
0.000719217
0.00053532
0.000381367
0.000255133
0.000148164
7.157e-05
2.68627e-05
7.34481e-06
1.35979e-06
1.45994e-07
6.13054e-09
3.63922e-11
0.0088527
0.00828332
0.00769725
0.00710527
0.00651655
0.00593863
0.00537751
0.00483778
0.00432281
0.00383493
0.00337569
0.0029453
0.00253665
0.00215785
0.00181104
0.0014964
0.00121367
0.000962646
0.000743089
0.000554496
0.000396228
0.000266195
0.000156577
7.65346e-05
2.90711e-05
8.01915e-06
1.49152e-06
1.60401e-07
6.73795e-09
3.99979e-11
0.00892519
0.00835785
0.00777223
0.00717941
0.00658883
0.00600826
0.00544389
0.00490048
0.00438153
0.0038895
0.00342603
0.00299212
0.00257967
0.00219651
0.00184532
0.00152642
0.00123958
0.000984597
0.000761273
0.000569151
0.000407623
0.000274717
0.000163092
8.04254e-05
3.08274e-05
8.56198e-06
1.59827e-06
1.72107e-07
7.23175e-09
4.29291e-11
0.00897315
0.00840727
0.00782205
0.00722876
0.006637
0.0060547
0.0054882
0.00494236
0.00442078
0.003926
0.00345971
0.00302299
0.0026084
0.00222245
0.00186835
0.0015466
0.00125701
0.00099939
0.000773547
0.000579062
0.000415347
0.000280511
0.000167536
8.31011e-05
3.2048e-05
8.94256e-06
1.67349e-06
1.80371e-07
7.58049e-09
4.49992e-11
0.00899702
0.0084319
0.00784691
0.0072534
0.00666107
0.00607793
0.00551037
0.00496332
0.00444044
0.00394429
0.0034766
0.00303847
0.00262281
0.00223546
0.00187991
0.00155674
0.00126578
0.00100684
0.000779733
0.000584062
0.000419249
0.000283442
0.000169788
8.44639e-05
3.26735e-05
9.13867e-06
1.71236e-06
1.84647e-07
7.76101e-09
4.60708e-11
0.008997
0.00843189
0.0078469
0.00725339
0.00666106
0.00607792
0.00551036
0.00496332
0.00444044
0.00394429
0.0034766
0.00303847
0.00262281
0.00223546
0.00187991
0.00155674
0.00126578
0.00100684
0.000779732
0.000584062
0.000419248
0.000283442
0.000169788
8.44638e-05
3.26735e-05
9.13867e-06
1.71236e-06
1.84647e-07
7.761e-09
4.60708e-11
0.0089731
0.00840723
0.00782202
0.00722873
0.00663698
0.00605469
0.00548819
0.00494235
0.00442077
0.003926
0.00345971
0.00302298
0.0026084
0.00222245
0.00186835
0.00154659
0.00125701
0.000999389
0.000773546
0.000579062
0.000415347
0.00028051
0.000167535
8.31009e-05
3.20479e-05
8.94254e-06
1.67348e-06
1.8037e-07
7.58047e-09
4.49992e-11
0.00892511
0.00835778
0.00777218
0.00717937
0.0065888
0.00600824
0.00544388
0.00490047
0.00438152
0.0038895
0.00342602
0.00299212
0.00257967
0.00219651
0.00184532
0.00152641
0.00123957
0.000984596
0.000761271
0.00056915
0.000407623
0.000274716
0.000163092
8.04252e-05
3.08273e-05
8.56196e-06
1.59826e-06
1.72107e-07
7.23173e-09
4.2929e-11
0.00885259
0.00828323
0.00769718
0.00710522
0.00651651
0.0059386
0.00537749
0.00483777
0.00432279
0.00383492
0.00337568
0.0029453
0.00253665
0.00215784
0.00181104
0.0014964
0.00121367
0.000962645
0.000743088
0.000554495
0.000396227
0.000266194
0.000156577
7.65344e-05
2.9071e-05
8.01912e-06
1.49151e-06
1.60401e-07
6.73792e-09
3.99977e-11
0.0087549
0.00818313
0.00759675
0.00700613
0.00642008
0.00584585
0.00528918
0.00475443
0.00424481
0.0037625
0.00330895
0.00288263
0.00247958
0.00210671
0.00176576
0.0014568
0.00117955
0.000933777
0.000719216
0.000535319
0.000381366
0.000255132
0.000148164
7.15697e-05
2.68625e-05
7.34477e-06
1.35979e-06
1.45993e-07
6.13051e-09
3.63921e-11
0.00863118
0.00805684
0.00747052
0.00688196
0.00629953
0.00573013
0.00517917
0.00465078
0.00414792
0.00367261
0.00322619
0.00280511
0.00240906
0.00204356
0.00170988
0.00140795
0.00113749
0.00089823
0.000689838
0.000511744
0.000363006
0.000240926
0.000137931
6.56442e-05
2.42799e-05
6.56857e-06
1.20946e-06
1.29603e-07
5.44002e-09
3.22932e-11
0.00848019
0.00790349
0.007318
0.00673253
0.00615492
0.00559165
0.00504781
0.00452722
0.0040326
0.00356577
0.00312791
0.00271339
0.00232575
0.00196904
0.001644
0.00135043
0.00108803
0.000856501
0.00065542
0.000484152
0.000341432
0.0002236
0.00012613
5.89644e-05
2.14383e-05
5.73018e-06
1.04867e-06
1.12135e-07
4.70476e-09
2.79283e-11
0.00829937
0.00772174
0.00713866
0.00655777
0.00598644
0.00543081
0.00489564
0.00438442
0.00389961
0.00344281
0.00301503
0.00260826
0.00223048
0.00188401
0.00156899
0.00128512
0.00103205
0.000809441
0.000616766
0.000453308
0.000317466
0.000204439
0.000113284
5.18652e-05
1.84971e-05
4.87941e-06
8.87203e-07
9.46588e-08
3.96978e-09
2.3565e-11
0.00808485
0.00751022
0.0069324
0.00635807
0.00579474
0.00524839
0.00472348
0.00422322
0.00374981
0.00330465
0.00288611
0.00249045
0.0021245
0.00178975
0.0014861
0.00121316
0.00097058
0.000757975
0.000574685
0.000419912
0.000291707
0.000183954
9.98133e-05
4.46282e-05
1.55858e-05
4.05508e-06
7.32447e-07
7.79744e-08
3.26872e-09
1.94029e-11
0.00782565
0.00726888
0.00669991
0.00613406
0.00558043
0.00504502
0.00453197
0.00404412
0.00358168
0.00314398
0.0027345
0.00235449
0.00200446
0.00168451
0.00139455
0.00113442
0.00090388
0.000702548
0.000529759
0.000384567
0.000264736
0.000162698
8.61691e-05
3.75342e-05
1.28222e-05
3.28981e-06
5.90364e-07
6.27167e-08
2.62824e-09
1.56009e-11
0.00782862
0.00727106
0.00670163
0.00613546
0.00558158
0.00504599
0.00453284
0.00404499
0.00358435
0.00314895
0.0027381
0.00235659
0.0020056
0.00168513
0.00139491
0.00113464
0.00090403
0.000702652
0.000529828
0.000384607
0.000264754
0.000162699
8.61597e-05
3.75239e-05
1.28161e-05
3.28756e-06
5.89836e-07
6.26471e-08
2.62476e-09
1.55811e-11
0.00808755
0.0075127
0.00693457
0.00636004
0.00579657
0.00525013
0.00472516
0.00422482
0.00375131
0.00330604
0.00288683
0.00249111
0.00212522
0.00179052
0.00148686
0.00121387
0.00097122
0.00075852
0.000575131
0.000420261
0.000291971
0.000184154
9.99405e-05
4.46942e-05
1.56113e-05
4.06206e-06
7.33707e-07
7.81041e-08
3.2739e-09
1.9436e-11
0.00830179
0.00772414
0.007141
0.00656006
0.0059887
0.00543303
0.0048978
0.0043865
0.00390158
0.00344466
0.00301675
0.0026098
0.00223192
0.00188534
0.0015702
0.00128617
0.00103295
0.000810192
0.000617375
0.000453789
0.000317834
0.000204727
0.000113474
5.19686e-05
1.8539e-05
4.89129e-06
8.89415e-07
9.48932e-08
3.97942e-09
2.36246e-11
0.00848194
0.00790549
0.00732013
0.00673474
0.00615717
0.0055939
0.00505003
0.00452937
0.00403464
0.00356769
0.0031297
0.0027151
0.00232733
0.00197046
0.00164525
0.00135151
0.00108895
0.000857277
0.000656055
0.000484657
0.000341824
0.000223911
0.000126341
5.90821e-05
2.14876e-05
5.74451e-06
1.05139e-06
1.12426e-07
4.71686e-09
2.80024e-11
0.00863254
0.00805846
0.00747232
0.00688389
0.00630154
0.00573215
0.00518117
0.00465272
0.00414976
0.00367435
0.0032278
0.00280668
0.0024105
0.00204485
0.00171101
0.00140893
0.00113832
0.000898929
0.000690414
0.000512205
0.000363367
0.000241215
0.00013813
6.57579e-05
2.43288e-05
6.58311e-06
1.21225e-06
1.29904e-07
5.45263e-09
3.23702e-11
0.00875594
0.00818439
0.0075982
0.00700771
0.00642174
0.00584753
0.00529084
0.00475605
0.00424634
0.00376394
0.00331028
0.00288393
0.00248077
0.00210776
0.00176668
0.00145759
0.00118023
0.000934349
0.000719688
0.000535695
0.000381657
0.000255348
0.000148327
7.16654e-05
2.69047e-05
7.35756e-06
1.36227e-06
1.46263e-07
6.14184e-09
3.64613e-11
0.00885335
0.00828418
0.00769829
0.00710644
0.0065178
0.00593992
0.00537879
0.00483902
0.00432398
0.00383603
0.00337671
0.0029463
0.00253756
0.00215865
0.00181174
0.001497
0.00121419
0.000963079
0.000743445
0.000554781
0.000396448
0.000266359
0.000156702
7.66088e-05
2.91044e-05
8.02939e-06
1.49352e-06
1.60621e-07
6.74722e-09
4.00547e-11
0.00892565
0.00835846
0.00777299
0.00718029
0.00658978
0.00600924
0.00544486
0.00490141
0.00438241
0.00389032
0.00342677
0.0029928
0.00258033
0.0021971
0.00184583
0.00152685
0.00123994
0.0009849
0.000761521
0.00056935
0.000407777
0.000274831
0.00016318
8.04779e-05
3.08513e-05
8.56942e-06
1.59974e-06
1.72269e-07
7.23862e-09
4.29715e-11
0.00897348
0.00840772
0.00782262
0.00722942
0.00663772
0.00605545
0.00548893
0.00494305
0.00442143
0.0039266
0.00346026
0.00302348
0.00260888
0.00222287
0.00186871
0.00154689
0.00125726
0.000999596
0.000773715
0.000579196
0.00041545
0.000280587
0.000167594
8.31362e-05
3.20641e-05
8.94764e-06
1.6745e-06
1.80483e-07
7.5853e-09
4.50291e-11
0.00899728
0.00843226
0.00784738
0.00725395
0.00666167
0.00607855
0.00551097
0.00496389
0.00444096
0.00394477
0.00347704
0.00303885
0.00262318
0.00223579
0.00188019
0.00155697
0.00126597
0.00100699
0.000779857
0.00058416
0.000419324
0.000283498
0.00016983
8.44895e-05
3.26854e-05
9.14242e-06
1.71311e-06
1.84731e-07
7.76463e-09
4.60936e-11
0.00899727
0.00843225
0.00784737
0.00725394
0.00666167
0.00607854
0.00551097
0.00496389
0.00444096
0.00394477
0.00347703
0.00303885
0.00262318
0.00223579
0.00188019
0.00155697
0.00126597
0.00100699
0.000779857
0.000584161
0.000419324
0.000283498
0.00016983
8.44896e-05
3.26854e-05
9.14242e-06
1.71311e-06
1.84731e-07
7.76463e-09
4.60936e-11
0.00897344
0.00840769
0.0078226
0.0072294
0.00663771
0.00605543
0.00548892
0.00494305
0.00442142
0.0039266
0.00346026
0.00302347
0.00260887
0.00222287
0.0018687
0.00154689
0.00125726
0.000999595
0.000773714
0.000579195
0.00041545
0.000280587
0.000167594
8.31362e-05
3.20641e-05
8.94763e-06
1.67449e-06
1.80482e-07
7.58529e-09
4.50291e-11
0.00892558
0.00835841
0.00777296
0.00718026
0.00658976
0.00600922
0.00544484
0.0049014
0.0043824
0.00389031
0.00342677
0.0029928
0.00258033
0.0021971
0.00184583
0.00152685
0.00123994
0.0009849
0.000761521
0.00056935
0.000407777
0.000274831
0.000163179
8.04778e-05
3.08512e-05
8.5694e-06
1.59973e-06
1.72269e-07
7.23861e-09
4.29714e-11
0.00885326
0.00828411
0.00769823
0.0071064
0.00651777
0.0059399
0.00537877
0.00483901
0.00432397
0.00383602
0.0033767
0.0029463
0.00253756
0.00215865
0.00181174
0.001497
0.00121419
0.000963078
0.000743445
0.000554781
0.000396448
0.000266359
0.000156702
7.66087e-05
2.91043e-05
8.02938e-06
1.49352e-06
1.60621e-07
6.74721e-09
4.00546e-11
0.00875582
0.0081843
0.00759813
0.00700766
0.0064217
0.0058475
0.00529082
0.00475603
0.00424633
0.00376393
0.00331027
0.00288393
0.00248076
0.00210776
0.00176668
0.00145759
0.00118023
0.000934348
0.000719688
0.000535695
0.000381657
0.000255348
0.000148327
7.16653e-05
2.69047e-05
7.35754e-06
1.36226e-06
1.46263e-07
6.14183e-09
3.64612e-11
0.0086324
0.00805836
0.00747225
0.00688384
0.0063015
0.00573212
0.00518115
0.0046527
0.00414975
0.00367434
0.00322779
0.00280667
0.00241049
0.00204484
0.001711
0.00140892
0.00113832
0.000898928
0.000690414
0.000512204
0.000363366
0.000241215
0.000138129
6.57578e-05
2.43288e-05
6.58309e-06
1.21224e-06
1.29904e-07
5.45261e-09
3.237e-11
0.0084818
0.00790538
0.00732006
0.00673469
0.00615713
0.00559387
0.00505001
0.00452935
0.00403463
0.00356768
0.00312969
0.00271509
0.00232732
0.00197046
0.00164525
0.00135151
0.00108895
0.000857276
0.000656055
0.000484657
0.000341823
0.000223911
0.00012634
5.90819e-05
2.14875e-05
5.74449e-06
1.05138e-06
1.12425e-07
4.71684e-09
2.80023e-11
0.00830164
0.00772403
0.00714092
0.00656
0.00598865
0.005433
0.00489778
0.00438648
0.00390157
0.00344465
0.00301674
0.00260979
0.00223192
0.00188534
0.00157019
0.00128617
0.00103295
0.000810191
0.000617374
0.000453788
0.000317834
0.000204726
0.000113474
5.19684e-05
1.85389e-05
4.89127e-06
8.89411e-07
9.48927e-08
3.9794e-09
2.36245e-11
0.0080874
0.0075126
0.00693449
0.00635997
0.00579653
0.0052501
0.00472513
0.0042248
0.0037513
0.00330602
0.00288682
0.00249111
0.00212522
0.00179052
0.00148686
0.00121387
0.000971217
0.000758518
0.000575129
0.00042026
0.00029197
0.000184153
9.994e-05
4.46939e-05
1.56112e-05
4.06203e-06
7.33702e-07
7.81035e-08
3.27388e-09
1.94359e-11
0.00782848
0.00727095
0.00670154
0.00613539
0.00558153
0.00504595
0.00453281
0.00404497
0.00358433
0.00314894
0.00273809
0.00235658
0.0020056
0.00168513
0.0013949
0.00113464
0.000904027
0.00070265
0.000529826
0.000384606
0.000264753
0.000162699
8.61593e-05
3.75237e-05
1.28161e-05
3.28754e-06
5.89832e-07
6.26467e-08
2.62475e-09
1.5581e-11
0.0078255
0.00726876
0.00669982
0.00613399
0.00558037
0.00504498
0.00453194
0.0040441
0.00358166
0.00314397
0.00273449
0.00235449
0.00200446
0.00168451
0.00139455
0.00113441
0.000903877
0.000702546
0.000529757
0.000384565
0.000264735
0.000162698
8.61686e-05
3.75339e-05
1.28221e-05
3.28979e-06
5.9036e-07
6.27163e-08
2.62822e-09
1.56008e-11
0.00808468
0.00751008
0.00693229
0.00635798
0.00579468
0.00524834
0.00472345
0.0042232
0.00374979
0.00330463
0.00288609
0.00249043
0.00212449
0.00178974
0.00148609
0.00121315
0.000970575
0.000757971
0.000574682
0.00041991
0.000291706
0.000183953
9.98127e-05
4.46279e-05
1.55856e-05
4.05505e-06
7.3244e-07
7.79737e-08
3.2687e-09
1.94028e-11
0.00829917
0.00772158
0.00713854
0.00655767
0.00598637
0.00543076
0.0048956
0.00438439
0.00389958
0.00344279
0.00301502
0.00260825
0.00223047
0.001884
0.00156899
0.00128511
0.00103204
0.000809438
0.000616763
0.000453307
0.000317464
0.000204438
0.000113283
5.18649e-05
1.84969e-05
4.87937e-06
8.87195e-07
9.4658e-08
3.96975e-09
2.35648e-11
0.00847996
0.00790331
0.00731787
0.00673243
0.00615484
0.00559159
0.00504777
0.00452719
0.00403258
0.00356575
0.0031279
0.00271338
0.00232574
0.00196903
0.00164399
0.00135042
0.00108802
0.000856498
0.000655418
0.00048415
0.00034143
0.000223599
0.000126129
5.8964e-05
2.14382e-05
5.73013e-06
1.04866e-06
1.12134e-07
4.70472e-09
2.7928e-11
0.00863093
0.00805665
0.00747037
0.00688185
0.00629945
0.00573007
0.00517913
0.00465075
0.0041479
0.0036726
0.00322618
0.0028051
0.00240905
0.00204356
0.00170988
0.00140795
0.00113749
0.000898227
0.000689835
0.000511741
0.000363004
0.000240924
0.00013793
6.56437e-05
2.42797e-05
6.56851e-06
1.20945e-06
1.29601e-07
5.43997e-09
3.22929e-11
0.00875464
0.00818292
0.00759659
0.00700601
0.00641999
0.00584578
0.00528913
0.0047544
0.00424479
0.00376248
0.00330894
0.00288262
0.00247957
0.0021067
0.00176576
0.00145679
0.00117954
0.000933773
0.000719213
0.000535316
0.000381364
0.000255131
0.000148163
7.15693e-05
2.68623e-05
7.34471e-06
1.35977e-06
1.45992e-07
6.13045e-09
3.63917e-11
0.0088523
0.00828301
0.00769702
0.00710509
0.00651641
0.00593853
0.00537744
0.00483773
0.00432276
0.00383489
0.00337567
0.00294529
0.00253664
0.00215784
0.00181103
0.00149639
0.00121367
0.000962642
0.000743086
0.000554494
0.000396226
0.000266193
0.000156576
7.65339e-05
2.90708e-05
8.01906e-06
1.4915e-06
1.60399e-07
6.73787e-09
3.99974e-11
0.00892481
0.00835755
0.00777201
0.00717924
0.00658871
0.00600817
0.00544382
0.00490042
0.00438149
0.00388947
0.003426
0.0029921
0.00257966
0.0021965
0.00184531
0.00152641
0.00123957
0.000984591
0.000761268
0.000569147
0.00040762
0.000274715
0.000163091
8.04246e-05
3.08271e-05
8.56187e-06
1.59825e-06
1.72105e-07
7.23165e-09
4.29285e-11
0.00897279
0.00840699
0.00782184
0.0072286
0.00663688
0.00605461
0.00548813
0.0049423
0.00442074
0.00392597
0.00345969
0.00302297
0.00260839
0.00222244
0.00186834
0.00154659
0.001257
0.000999384
0.000773542
0.000579058
0.000415344
0.000280508
0.000167534
8.31003e-05
3.20476e-05
8.94245e-06
1.67346e-06
1.80368e-07
7.58039e-09
4.49986e-11
0.00899667
0.00843164
0.00784671
0.00725325
0.00666096
0.00607784
0.0055103
0.00496327
0.0044404
0.00394426
0.00347658
0.00303845
0.00262279
0.00223545
0.00187991
0.00155673
0.00126577
0.00100683
0.000779728
0.000584059
0.000419246
0.00028344
0.000169787
8.44632e-05
3.26732e-05
9.13857e-06
1.71234e-06
1.84645e-07
7.76091e-09
4.60702e-11
0.00899668
0.00843165
0.00784672
0.00725325
0.00666096
0.00607785
0.0055103
0.00496327
0.0044404
0.00394426
0.00347658
0.00303845
0.0026228
0.00223545
0.00187991
0.00155673
0.00126577
0.00100683
0.000779728
0.000584059
0.000419246
0.00028344
0.000169787
8.44632e-05
3.26732e-05
9.13858e-06
1.71235e-06
1.84645e-07
7.76092e-09
4.60703e-11
0.00897282
0.00840702
0.00782186
0.00722861
0.00663689
0.00605462
0.00548814
0.00494231
0.00442074
0.00392598
0.0034597
0.00302298
0.0026084
0.00222244
0.00186834
0.00154659
0.001257
0.000999385
0.000773543
0.000579059
0.000415345
0.000280509
0.000167534
8.31003e-05
3.20476e-05
8.94246e-06
1.67347e-06
1.80369e-07
7.5804e-09
4.49987e-11
0.00892486
0.00835759
0.00777204
0.00717927
0.00658872
0.00600818
0.00544383
0.00490043
0.0043815
0.00388948
0.00342601
0.00299211
0.00257966
0.00219651
0.00184532
0.00152641
0.00123957
0.000984592
0.000761269
0.000569148
0.000407621
0.000274715
0.000163091
8.04247e-05
3.08271e-05
8.56189e-06
1.59825e-06
1.72105e-07
7.23167e-09
4.29286e-11
0.00885238
0.00828307
0.00769706
0.00710512
0.00651644
0.00593855
0.00537745
0.00483774
0.00432277
0.0038349
0.00337568
0.00294529
0.00253665
0.00215784
0.00181104
0.0014964
0.00121367
0.000962643
0.000743087