/*--------------------------------*- C++ -*----------------------------------*\
| =========                 |                                                 |
| \\      /  F ield         | OpenFOAM: The Open Source CFD Toolbox           |
|  \\    /   O peration     | Version:  2306                                  |
|   \\  /    A nd           | Website:  www.openfoam.com                      |
|    \\/     M anipulation  |                                                 |
\*---------------------------------------------------------------------------*/
FoamFile
{
    version     2.0;
    format      ascii;
    arch        "LSB;label=32;scalar=64";
    class       volScalarField;
    location    "2197";
    object      p;
}
// * * * * * * * * * * * * * * * * * * * * * * * * * * * * * * * * * * * * * //

dimensions      [0 2 -2 0 0 0 0];

internalField   nonuniform List<scalar> 
2800
(
8.40621e-16
3.73948e-15
3.72385e-15
3.7145e-15
3.69874e-15
3.73807e-15
3.74605e-15
3.7167e-15
3.70825e-15
3.70256e-15
3.69277e-15
3.69776e-15
3.74468e-15
3.70797e-15
3.70714e-15
3.74085e-15
3.75239e-15
3.76472e-15
3.72381e-15
3.77869e-15
3.65265e-15
3.75886e-15
3.76962e-15
3.69679e-15
3.7049e-15
3.75647e-15
3.56855e-15
3.74013e-15
3.58996e-15
3.60566e-15
3.55608e-15
3.71843e-15
3.6465e-15
3.7867e-15
3.82452e-15
3.79922e-15
3.72835e-15
3.74114e-15
3.76712e-15
3.79449e-15
3.69123e-15
3.77443e-15
3.73469e-15
3.73374e-15
3.66892e-15
3.71701e-15
3.69782e-15
3.683e-15
3.73157e-15
3.67133e-15
3.708e-15
3.61345e-15
3.46871e-15
3.6341e-15
3.63692e-15
3.65196e-15
3.70814e-15
3.71835e-15
3.73201e-15
3.76888e-15
3.66626e-15
3.7413e-15
3.73459e-15
3.74737e-15
3.68249e-15
3.6456e-15
3.66052e-15
3.47198e-15
3.62424e-15
3.71657e-15
3.64871e-15
3.45707e-15
3.63029e-15
3.64544e-15
3.69568e-15
3.73269e-15
3.57361e-15
3.64094e-15
3.70513e-15
3.82566e-15
3.71078e-15
3.71885e-15
3.69194e-15
3.80445e-15
3.74939e-15
3.6959e-15
3.84692e-15
3.68564e-15
3.76818e-15
3.5692e-15
3.52519e-15
3.50262e-15
3.69928e-15
3.69864e-15
3.84834e-15
3.73021e-15
3.65689e-15
3.67316e-15
3.76963e-15
3.7267e-15
3.732e-15
3.65866e-15
3.69236e-15
3.64811e-15
3.63165e-15
3.63007e-15
3.65786e-15
3.72912e-15
3.58504e-15
3.715e-15
3.61983e-15
3.7417e-15
3.67773e-15
3.58317e-15
3.83921e-15
3.79877e-15
3.84967e-15
3.79027e-15
3.8025e-15
3.80955e-15
3.71152e-15
3.75654e-15
3.67984e-15
3.67358e-15
3.49541e-15
3.62182e-15
3.68662e-15
3.5981e-15
3.61369e-15
3.65336e-15
3.76286e-15
3.80388e-15
3.82632e-15
3.63409e-15
3.94084e-15
3.70784e-15
3.77088e-15
3.73823e-15
3.65291e-15
3.65315e-15
3.7331e-15
3.57556e-15
3.65461e-15
3.85859e-15
3.64745e-15
3.66479e-15
3.76529e-15
3.71623e-15
3.63581e-15
3.60625e-15
3.80362e-15
3.72936e-15
3.65897e-15
3.68162e-15
3.8194e-15
3.81769e-15
3.69957e-15
3.74481e-15
3.66771e-15
3.8071e-15
3.69812e-15
3.67063e-15
3.51221e-15
3.67342e-15
3.47953e-15
3.62358e-15
3.73054e-15
3.70132e-15
3.618e-15
3.75731e-15
3.68046e-15
3.7308e-15
3.74169e-15
3.61903e-15
3.84289e-15
3.63755e-15
3.71999e-15
3.70391e-15
3.65532e-15
3.64188e-15
3.6793e-15
3.71551e-15
3.64876e-15
3.6444e-15
3.61979e-15
3.60357e-15
3.73604e-15
3.72329e-15
3.65389e-15
3.70073e-15
3.69473e-15
3.75979e-15
3.86258e-15
3.71154e-15
3.80839e-15
3.79062e-15
3.84599e-15
3.6807e-15
3.72614e-15
3.78105e-15
3.66185e-15
3.52762e-15
3.63679e-15
3.62821e-15
3.57727e-15
3.70047e-15
3.54391e-15
3.63556e-15
3.65835e-15
3.69773e-15
3.74196e-15
3.76939e-15
3.76193e-15
3.80436e-15
3.70757e-15
3.85711e-15
3.75685e-15
3.72134e-15
3.70085e-15
3.73584e-15
3.65699e-15
3.59788e-15
3.64668e-15
3.72796e-15
3.69049e-15
3.64615e-15
3.52348e-15
3.69562e-15
3.64517e-15
3.77247e-15
3.5434e-15
3.81065e-15
3.8978e-15
3.89471e-15
3.82511e-15
3.91039e-15
3.75831e-15
3.66215e-15
3.77858e-15
3.8118e-15
3.56473e-15
3.67057e-15
3.71827e-15
3.69398e-15
3.63805e-15
3.67064e-15
3.56376e-15
3.79833e-15
3.72172e-15
3.77865e-15
3.56101e-15
3.85272e-15
3.87592e-15
3.88042e-15
3.78786e-15
3.93544e-15
3.87158e-15
3.77312e-15
3.79217e-15
3.74831e-15
3.61463e-15
3.54489e-15
3.62497e-15
3.63215e-15
3.68793e-15
3.75563e-15
3.78361e-15
3.6963e-15
3.83163e-15
3.78244e-15
3.66411e-15
3.66679e-15
3.80244e-15
3.86287e-15
3.7703e-15
3.80294e-15
3.76698e-15
3.77575e-15
3.7308e-15
3.64235e-15
3.62878e-15
3.5182e-15
3.60915e-15
3.6091e-15
3.53269e-15
3.46756e-15
3.43728e-15
3.62954e-15
3.54495e-15
3.6744e-15
3.80888e-15
3.77375e-15
3.80917e-15
3.76829e-15
3.70045e-15
3.89652e-15
3.77466e-15
3.81318e-15
3.80044e-15
3.71351e-15
3.6218e-15
3.54649e-15
3.60962e-15
3.67493e-15
3.76425e-15
3.57988e-15
3.72302e-15
3.65458e-15
3.7242e-15
3.78517e-15
3.60132e-15
3.72104e-15
3.70907e-15
3.79051e-15
3.68463e-15
3.788e-15
3.80939e-15
3.73064e-15
3.86455e-15
3.73124e-15
3.62227e-15
3.6005e-15
3.54005e-15
3.73432e-15
3.76211e-15
3.59867e-15
3.62607e-15
3.6996e-15
3.65004e-15
3.6047e-15
3.56681e-15
3.74211e-15
3.67925e-15
3.74242e-15
3.7443e-15
3.65956e-15
3.76809e-15
3.70105e-15
3.69538e-15
3.7062e-15
3.62457e-15
3.61159e-15
3.60244e-15
3.67266e-15
3.5307e-15
3.61523e-15
3.73272e-15
3.6864e-15
3.7404e-15
3.70111e-15
3.71729e-15
3.68074e-15
3.70853e-15
3.75156e-15
3.74823e-15
3.70018e-15
3.72463e-15
3.72827e-15
3.60973e-15
3.68921e-15
3.71091e-15
3.61752e-15
3.64034e-15
3.6151e-15
3.56832e-15
3.64349e-15
3.78111e-15
3.80686e-15
3.65662e-15
3.73958e-15
3.75154e-15
3.73948e-15
3.74821e-15
3.73209e-15
3.74741e-15
3.51392e-15
3.74141e-15
3.78745e-15
3.69202e-15
3.66612e-15
3.64448e-15
3.61843e-15
3.59915e-15
3.52451e-15
3.65921e-15
3.60274e-15
3.78727e-15
3.61375e-15
3.76139e-15
3.71566e-15
3.72106e-15
3.68411e-15
3.72385e-15
3.77589e-15
3.75215e-15
3.68999e-15
3.72249e-15
3.72339e-15
3.74196e-15
3.71445e-15
3.8485e-15
3.81963e-15
3.85201e-15
3.82966e-15
3.81549e-15
3.77718e-15
3.77514e-15
3.79589e-15
3.76828e-15
3.75919e-15
3.78757e-15
3.81253e-15
3.79953e-15
3.81209e-15
3.81212e-15
3.80377e-15
3.80288e-15
3.80829e-15
3.79834e-15
3.79244e-15
3.79109e-15
3.79359e-15
3.79454e-15
3.79572e-15
3.79495e-15
3.79436e-15
3.79436e-15
3.79446e-15
3.79436e-15
3.79412e-15
3.79678e-15
3.77192e-15
3.73087e-15
3.81174e-15
3.76665e-15
3.78665e-15
3.78862e-15
3.74318e-15
3.76372e-15
3.75574e-15
3.77217e-15
3.76918e-15
3.75984e-15
3.76704e-15
3.77704e-15
3.78935e-15
3.77013e-15
3.76958e-15
3.77787e-15
3.77657e-15
3.77919e-15
3.7781e-15
3.78066e-15
3.77793e-15
3.77706e-15
3.77907e-15
3.77963e-15
3.7797e-15
3.77981e-15
3.77947e-15
3.75503e-15
3.8093e-15
3.74403e-15
3.81414e-15
3.79815e-15
3.77625e-15
3.77155e-15
3.77346e-15
3.78148e-15
3.78142e-15
3.75798e-15
3.74709e-15
3.75751e-15
3.75798e-15
3.76938e-15
3.76523e-15
3.76498e-15
3.77145e-15
3.76853e-15
3.76196e-15
3.75933e-15
3.76108e-15
3.75776e-15
3.75601e-15
3.75901e-15
3.75972e-15
3.75877e-15
3.75876e-15
3.75877e-15
3.75833e-15
3.69504e-15
3.76624e-15
3.7498e-15
3.77245e-15
3.75485e-15
3.76772e-15
3.81848e-15
3.75385e-15
3.76363e-15
3.75657e-15
3.75553e-15
3.7484e-15
3.76222e-15
3.77438e-15
3.75111e-15
3.74448e-15
3.75044e-15
3.75229e-15
3.75216e-15
3.75314e-15
3.75271e-15
3.75114e-15
3.75065e-15
3.74932e-15
3.74828e-15
3.7513e-15
3.7534e-15
3.75091e-15
3.75149e-15
3.75165e-15
3.73642e-15
3.74589e-15
3.74223e-15
3.78637e-15
3.76493e-15
3.74955e-15
3.70724e-15
3.74048e-15
3.78214e-15
3.76128e-15
3.7473e-15
3.74527e-15
3.75311e-15
3.77144e-15
3.74905e-15
3.7291e-15
3.73899e-15
3.74085e-15
3.73636e-15
3.73603e-15
3.74076e-15
3.73706e-15
3.73333e-15
3.73817e-15
3.7382e-15
3.73693e-15
3.73646e-15
3.73633e-15
3.73606e-15
3.73634e-15
3.7701e-15
3.84871e-15
3.86727e-15
3.78236e-15
3.76017e-15
3.79416e-15
3.77941e-15
3.79183e-15
3.79565e-15
3.77543e-15
3.77498e-15
3.76866e-15
3.76873e-15
3.77256e-15
3.77682e-15
3.77852e-15
3.77427e-15
3.76792e-15
3.7719e-15
3.77425e-15
3.77734e-15
3.77533e-15
3.77364e-15
3.77384e-15
3.77426e-15
3.77351e-15
3.77361e-15
3.77361e-15
3.77323e-15
3.77312e-15
3.74819e-15
3.84432e-15
3.76989e-15
3.75991e-15
3.81098e-15
3.77057e-15
3.78619e-15
3.81898e-15
3.80303e-15
3.78277e-15
3.79331e-15
3.76748e-15
3.7445e-15
3.75139e-15
3.75206e-15
3.75219e-15
3.75727e-15
3.75307e-15
3.75031e-15
3.74773e-15
3.74813e-15
3.74758e-15
3.75075e-15
3.75351e-15
3.75184e-15
3.75082e-15
3.75096e-15
3.75139e-15
3.75151e-15
3.75154e-15
3.78868e-15
3.79258e-15
3.78703e-15
3.76579e-15
3.72038e-15
3.77744e-15
3.76209e-15
3.72427e-15
3.73008e-15
3.73947e-15
3.74421e-15
3.76898e-15
3.7614e-15
3.77861e-15
3.77927e-15
3.78198e-15
3.76967e-15
3.76023e-15
3.76145e-15
3.76382e-15
3.76789e-15
3.76722e-15
3.7671e-15
3.76918e-15
3.76726e-15
3.76722e-15
3.76772e-15
3.76771e-15
3.76734e-15
3.76742e-15
3.72219e-15
3.65814e-15
3.7779e-15
3.78594e-15
3.79611e-15
3.74964e-15
3.7798e-15
3.80662e-15
3.75592e-15
3.76216e-15
3.74179e-15
3.75178e-15
3.74829e-15
3.74285e-15
3.7447e-15
3.75995e-15
3.75706e-15
3.75789e-15
3.75532e-15
3.75815e-15
3.75929e-15
3.75587e-15
3.75594e-15
3.75749e-15
3.75749e-15
3.75763e-15
3.75759e-15
3.7578e-15
3.75808e-15
3.75812e-15
3.79412e-15
3.84716e-15
3.81065e-15
3.73115e-15
3.78277e-15
3.74364e-15
3.79925e-15
3.79631e-15
3.77236e-15
3.78462e-15
3.78904e-15
3.79159e-15
3.79882e-15
3.79956e-15
3.79814e-15
3.79513e-15
3.80415e-15
3.79685e-15
3.79256e-15
3.78798e-15
3.7922e-15
3.79389e-15
3.79428e-15
3.79489e-15
3.79536e-15
3.79583e-15
3.79545e-15
3.79527e-15
3.79528e-15
3.79527e-15
3.71479e-15
3.68169e-15
3.72063e-15
3.73112e-15
3.74976e-15
3.74945e-15
3.73028e-15
3.71749e-15
3.7297e-15
3.71927e-15
3.73111e-15
3.7286e-15
3.74818e-15
3.75853e-15
3.74578e-15
3.76137e-15
3.75518e-15
3.75745e-15
3.75171e-15
3.74503e-15
3.74851e-15
3.74966e-15
3.74927e-15
3.74844e-15
3.74864e-15
3.74898e-15
3.74832e-15
3.74822e-15
3.7483e-15
3.74821e-15
3.7469e-15
3.80325e-15
3.79526e-15
3.78775e-15
3.77774e-15
3.75949e-15
3.75108e-15
3.70106e-15
3.76593e-15
3.75355e-15
3.74847e-15
3.74268e-15
3.75618e-15
3.76129e-15
3.74608e-15
3.74877e-15
3.74977e-15
3.74596e-15
3.74849e-15
3.75012e-15
3.75093e-15
3.7529e-15
3.75298e-15
3.75156e-15
3.7509e-15
3.7511e-15
3.75107e-15
3.75127e-15
3.75108e-15
3.751e-15
3.75494e-15
3.73072e-15
3.65452e-15
3.74033e-15
3.7644e-15
3.71646e-15
3.70454e-15
3.65141e-15
3.67756e-15
3.69901e-15
3.68628e-15
3.70214e-15
3.71389e-15
3.72223e-15
3.73255e-15
3.7203e-15
3.72672e-15
3.72764e-15
3.7267e-15
3.72604e-15
3.72017e-15
3.72198e-15
3.7233e-15
3.71964e-15
3.72008e-15
3.71984e-15
3.71945e-15
3.71979e-15
3.71987e-15
3.71971e-15
3.71394e-15
3.65792e-15
3.80948e-15
3.72259e-15
3.69896e-15
3.71062e-15
3.714e-15
3.71964e-15
3.7534e-15
3.7418e-15
3.7393e-15
3.72393e-15
3.73888e-15
3.74521e-15
3.74008e-15
3.74901e-15
3.75481e-15
3.74381e-15
3.74069e-15
3.74927e-15
3.75158e-15
3.75049e-15
3.74855e-15
3.74672e-15
3.74734e-15
3.7472e-15
3.7478e-15
3.74755e-15
3.74761e-15
3.74775e-15
3.73796e-15
3.7868e-15
3.84466e-15
3.75186e-15
3.72979e-15
3.74674e-15
3.71148e-15
3.68672e-15
3.67883e-15
3.70418e-15
3.70215e-15
3.70643e-15
3.70206e-15
3.69275e-15
3.69254e-15
3.68782e-15
3.67735e-15
3.68124e-15
3.68542e-15
3.68382e-15
3.67714e-15
3.6766e-15
3.67859e-15
3.6793e-15
3.67866e-15
3.67848e-15
3.67774e-15
3.6781e-15
3.67864e-15
3.67882e-15
3.64292e-15
3.70565e-15
3.67306e-15
3.67372e-15
3.69565e-15
3.66616e-15
3.65634e-15
3.65442e-15
3.69278e-15
3.68957e-15
3.68208e-15
3.68575e-15
3.68817e-15
3.6805e-15
3.69294e-15
3.70105e-15
3.6867e-15
3.68309e-15
3.69039e-15
3.6865e-15
3.68072e-15
3.68615e-15
3.69152e-15
3.68652e-15
3.68624e-15
3.68739e-15
3.68794e-15
3.68796e-15
3.68791e-15
3.68797e-15
3.72581e-15
3.70947e-15
3.68022e-15
3.68245e-15
3.71069e-15
3.70335e-15
3.68168e-15
3.67336e-15
3.69216e-15
3.6839e-15
3.68629e-15
3.66752e-15
3.65561e-15
3.63961e-15
3.65389e-15
3.64709e-15
3.63508e-15
3.64266e-15
3.64222e-15
3.64311e-15
3.63789e-15
3.63606e-15
3.63746e-15
3.6401e-15
3.64239e-15
3.63874e-15
3.63744e-15
3.63846e-15
3.63866e-15
3.63846e-15
3.72669e-15
3.74289e-15
3.74465e-15
3.67309e-15
3.6948e-15
3.64884e-15
3.62209e-15
3.65815e-15
3.6559e-15
3.64541e-15
3.6672e-15
3.66403e-15
3.66072e-15
3.65744e-15
3.65961e-15
3.66679e-15
3.65929e-15
3.65401e-15
3.65367e-15
3.65958e-15
3.66037e-15
3.65524e-15
3.65897e-15
3.65943e-15
3.65861e-15
3.65812e-15
3.65767e-15
3.65736e-15
3.65745e-15
3.65795e-15
3.75885e-15
3.75186e-15
3.73826e-15
3.67149e-15
3.72476e-15
3.69583e-15
3.70429e-15
3.72056e-15
3.68377e-15
3.68689e-15
3.67268e-15
3.65915e-15
3.66626e-15
3.6764e-15
3.66033e-15
3.64249e-15
3.66144e-15
3.66753e-15
3.66046e-15
3.66291e-15
3.66289e-15
3.66182e-15
3.65802e-15
3.66265e-15
3.66451e-15
3.66288e-15
3.66249e-15
3.66317e-15
3.66296e-15
3.66321e-15
3.70652e-15
3.72132e-15
3.67245e-15
3.66542e-15
3.6537e-15
3.65874e-15
3.71045e-15
3.69537e-15
3.72921e-15
3.7404e-15
3.69813e-15
3.68635e-15
3.68256e-15
3.68652e-15
3.69813e-15
3.70407e-15
3.6999e-15
3.69025e-15
3.69855e-15
3.69903e-15
3.69844e-15
3.69846e-15
3.6963e-15
3.69633e-15
3.69595e-15
3.69507e-15
3.69535e-15
3.69542e-15
3.69543e-15
3.69561e-15
3.69657e-15
3.65548e-15
3.64619e-15
3.70903e-15
3.71649e-15
3.72543e-15
3.7178e-15
3.67421e-15
3.69701e-15
3.69821e-15
3.70855e-15
3.69824e-15
3.6837e-15
3.68438e-15
3.69166e-15
3.68581e-15
3.68919e-15
3.68949e-15
3.68549e-15
3.68189e-15
3.68294e-15
3.68399e-15
3.68178e-15
3.68226e-15
3.68045e-15
3.68231e-15
3.68154e-15
3.68067e-15
3.68067e-15
3.68048e-15
3.64892e-15
3.68667e-15
3.7396e-15
3.70039e-15
3.66284e-15
3.69814e-15
3.69568e-15
3.6947e-15
3.69445e-15
3.68909e-15
3.72625e-15
3.71834e-15
3.71429e-15
3.69503e-15
3.69061e-15
3.69294e-15
3.68495e-15
3.67999e-15
3.67456e-15
3.677e-15
3.67835e-15
3.68158e-15
3.67877e-15
3.67794e-15
3.67678e-15
3.6781e-15
3.67555e-15
3.67555e-15
3.67678e-15
3.67683e-15
3.71192e-15
3.73744e-15
3.66469e-15
3.72492e-15
3.73725e-15
3.67504e-15
3.68888e-15
3.71325e-15
3.66907e-15
3.6627e-15
3.64802e-15
3.65953e-15
3.68035e-15
3.65086e-15
3.64309e-15
3.64663e-15
3.62565e-15
3.63838e-15
3.63847e-15
3.63961e-15
3.63889e-15
3.63668e-15
3.64131e-15
3.64303e-15
3.64359e-15
3.64183e-15
3.64073e-15
3.64095e-15
3.64137e-15
3.64186e-15
3.6154e-15
3.76789e-15
3.66389e-15
3.72752e-15
3.6478e-15
3.66513e-15
3.6095e-15
3.60713e-15
3.60546e-15
3.60857e-15
3.63143e-15
3.62562e-15
3.61011e-15
3.62073e-15
3.6299e-15
3.6269e-15
3.62064e-15
3.62912e-15
3.62273e-15
3.61949e-15
3.61266e-15
3.61516e-15
3.62015e-15
3.62086e-15
3.61986e-15
3.61869e-15
3.61995e-15
3.62038e-15
3.6191e-15
3.61879e-15
3.67154e-15
3.68989e-15
3.67289e-15
3.67956e-15
3.69239e-15
3.64657e-15
3.65762e-15
3.64374e-15
3.65527e-15
3.61892e-15
3.61306e-15
3.6006e-15
3.61146e-15
3.61641e-15
3.61217e-15
3.60377e-15
3.6155e-15
3.61854e-15
3.61713e-15
3.60416e-15
3.60938e-15
3.61137e-15
3.60885e-15
3.60824e-15
3.60756e-15
3.60731e-15
3.60793e-15
3.60794e-15
3.60674e-15
3.60696e-15
3.67784e-15
3.77132e-15
3.75581e-15
3.6918e-15
3.64309e-15
3.62395e-15
3.6536e-15
3.60448e-15
3.59841e-15
3.59788e-15
3.63177e-15
3.6506e-15
3.6153e-15
3.61177e-15
3.61976e-15
3.60448e-15
3.60682e-15
3.60432e-15
3.59311e-15
3.59483e-15
3.59656e-15
3.59703e-15
3.5971e-15
3.60092e-15
3.59585e-15
3.59401e-15
3.59574e-15
3.59628e-15
3.59591e-15
3.59575e-15
3.66756e-15
3.70583e-15
3.66576e-15
3.69281e-15
3.6698e-15
3.6243e-15
3.63349e-15
3.59929e-15
3.61392e-15
3.61401e-15
3.61371e-15
3.60623e-15
3.60752e-15
3.62298e-15
3.61731e-15
3.61605e-15
3.61108e-15
3.61383e-15
3.60324e-15
3.59962e-15
3.60112e-15
3.5994e-15
3.60111e-15
3.59915e-15
3.59792e-15
3.59685e-15
3.59683e-15
3.59747e-15
3.59764e-15
3.59779e-15
3.68642e-15
3.64363e-15
3.66845e-15
3.73606e-15
3.64454e-15
3.64927e-15
3.65638e-15
3.58326e-15
3.63019e-15
3.63325e-15
3.61472e-15
3.59359e-15
3.58436e-15
3.60219e-15
3.59668e-15
3.58608e-15
3.58708e-15
3.58696e-15
3.58813e-15
3.58791e-15
3.58779e-15
3.59027e-15
3.58667e-15
3.58751e-15
3.58927e-15
3.58818e-15
3.58774e-15
3.58778e-15
3.58783e-15
3.58781e-15
3.64133e-15
3.76497e-15
3.62373e-15
3.67476e-15
3.67662e-15
3.65616e-15
3.66764e-15
3.65263e-15
3.59375e-15
3.629e-15
3.61512e-15
3.60435e-15
3.59576e-15
3.59449e-15
3.59381e-15
3.59213e-15
3.59714e-15
3.60625e-15
3.59526e-15
3.59346e-15
3.59783e-15
3.59712e-15
3.59778e-15
3.59691e-15
3.59735e-15
3.59796e-15
3.59805e-15
3.59784e-15
3.59777e-15
3.59795e-15
3.75021e-15
3.68085e-15
3.68013e-15
3.65229e-15
3.65657e-15
3.68323e-15
3.62454e-15
3.61171e-15
3.62069e-15
3.58738e-15
3.57903e-15
3.57978e-15
3.58869e-15
3.56827e-15
3.57059e-15
3.57649e-15
3.58174e-15
3.57579e-15
3.57116e-15
3.5695e-15
3.57138e-15
3.57036e-15
3.57163e-15
3.57226e-15
3.57292e-15
3.5722e-15
3.57236e-15
3.57229e-15
3.57236e-15
3.57227e-15
3.72465e-15
3.68913e-15
3.68516e-15
3.6763e-15
3.72374e-15
3.67997e-15
3.64605e-15
3.6656e-15
3.62371e-15
3.61422e-15
3.60813e-15
3.6163e-15
3.59173e-15
3.59511e-15
3.58592e-15
3.57167e-15
3.57949e-15
3.59337e-15
3.58336e-15
3.5822e-15
3.58134e-15
3.58195e-15
3.58026e-15
3.58125e-15
3.5821e-15
3.58153e-15
3.58157e-15
3.58103e-15
3.58102e-15
3.58122e-15
3.8293e-15
3.74522e-15
3.69667e-15
3.67281e-15
3.65395e-15
3.66185e-15
3.65216e-15
3.62784e-15
3.60993e-15
3.5917e-15
3.58502e-15
3.58169e-15
3.5556e-15
3.55273e-15
3.55171e-15
3.5567e-15
3.56365e-15
3.5571e-15
3.5628e-15
3.55885e-15
3.55564e-15
3.5548e-15
3.55688e-15
3.55752e-15
3.55708e-15
3.55649e-15
3.55678e-15
3.55674e-15
3.55656e-15
3.55618e-15
3.69246e-15
3.69273e-15
3.66891e-15
3.66321e-15
3.63955e-15
3.62895e-15
3.64574e-15
3.66369e-15
3.62969e-15
3.6032e-15
3.62431e-15
3.60531e-15
3.59457e-15
3.58659e-15
3.58032e-15
3.59195e-15
3.59944e-15
3.58561e-15
3.5786e-15
3.57942e-15
3.57796e-15
3.57632e-15
3.57702e-15
3.57733e-15
3.57548e-15
3.57634e-15
3.57683e-15
3.57681e-15
3.57674e-15
3.57673e-15
3.70409e-15
3.67715e-15
3.6121e-15
3.644e-15
3.65802e-15
3.63848e-15
3.60341e-15
3.57929e-15
3.60678e-15
3.58899e-15
3.56879e-15
3.5952e-15
3.58033e-15
3.58284e-15
3.58177e-15
3.57247e-15
3.57213e-15
3.55999e-15
3.57086e-15
3.5779e-15
3.56878e-15
3.56681e-15
3.56552e-15
3.5655e-15
3.5655e-15
3.56581e-15
3.56604e-15
3.56568e-15
3.56534e-15
3.56482e-15
3.6078e-15
3.7427e-15
3.76664e-15
3.66328e-15
3.61923e-15
3.6401e-15
3.57482e-15
3.58187e-15
3.59294e-15
3.64681e-15
3.63057e-15
3.60192e-15
3.60562e-15
3.60844e-15
3.61513e-15
3.61695e-15
3.60221e-15
3.60206e-15
3.6008e-15
3.6011e-15
3.59998e-15
3.59812e-15
3.59798e-15
3.59403e-15
3.59837e-15
3.59991e-15
3.59834e-15
3.59827e-15
3.59836e-15
3.59838e-15
3.70247e-15
3.67026e-15
3.65814e-15
3.60037e-15
3.64842e-15
3.62737e-15
3.62986e-15
3.63387e-15
3.65672e-15
3.64487e-15
3.63961e-15
3.64467e-15
3.64184e-15
3.63175e-15
3.6006e-15
3.60624e-15
3.60021e-15
3.61059e-15
3.61415e-15
3.61738e-15
3.60771e-15
3.60617e-15
3.608e-15
3.60968e-15
3.60949e-15
3.60765e-15
3.6071e-15
3.60671e-15
3.60766e-15
3.60771e-15
3.64642e-15
3.72668e-15
3.72104e-15
3.67239e-15
3.68241e-15
3.68176e-15
3.67241e-15
3.64002e-15
3.65594e-15
3.65841e-15
3.661e-15
3.64387e-15
3.65938e-15
3.67009e-15
3.64191e-15
3.65157e-15
3.65922e-15
3.64503e-15
3.64954e-15
3.64988e-15
3.65459e-15
3.6513e-15
3.65075e-15
3.64901e-15
3.64773e-15
3.64865e-15
3.64727e-15
3.64648e-15
3.64732e-15
3.64764e-15
3.62e-15
3.66689e-15
3.62996e-15
3.65933e-15
3.68325e-15
3.67595e-15
3.642e-15
3.62063e-15
3.63691e-15
3.62901e-15
3.65881e-15
3.65919e-15
3.6508e-15
3.66495e-15
3.66921e-15
3.6583e-15
3.67504e-15
3.66401e-15
3.66533e-15
3.66416e-15
3.66484e-15
3.6665e-15
3.65885e-15
3.65813e-15
3.65929e-15
3.66145e-15
3.66297e-15
3.66207e-15
3.66226e-15
3.66194e-15
3.64218e-15
3.64691e-15
3.63485e-15
3.64429e-15
3.61479e-15
3.62564e-15
3.67112e-15
3.6715e-15
3.67131e-15
3.66132e-15
3.662e-15
3.69496e-15
3.66842e-15
3.68495e-15
3.69151e-15
3.68181e-15
3.68992e-15
3.68386e-15
3.68776e-15
3.68785e-15
3.68577e-15
3.68485e-15
3.68709e-15
3.68548e-15
3.68653e-15
3.68559e-15
3.6877e-15
3.6881e-15
3.68705e-15
3.68652e-15
3.57386e-15
3.622e-15
3.66146e-15
3.67699e-15
3.65446e-15
3.64168e-15
3.68033e-15
3.69032e-15
3.67018e-15
3.67784e-15
3.67344e-15
3.67083e-15
3.68469e-15
3.69414e-15
3.69706e-15
3.69601e-15
3.69031e-15
3.68565e-15
3.68962e-15
3.69508e-15
3.6953e-15
3.69261e-15
3.69238e-15
3.68988e-15
3.69133e-15
3.69148e-15
3.69283e-15
3.69261e-15
3.69268e-15
3.69254e-15
3.71688e-15
3.66096e-15
3.67157e-15
3.68057e-15
3.66561e-15
3.62238e-15
3.63591e-15
3.68168e-15
3.6542e-15
3.64445e-15
3.67823e-15
3.699e-15
3.68941e-15
3.70261e-15
3.70899e-15
3.70393e-15
3.70249e-15
3.70735e-15
3.69718e-15
3.69249e-15
3.6916e-15
3.69413e-15
3.69509e-15
3.69643e-15
3.69528e-15
3.6949e-15
3.69477e-15
3.69479e-15
3.69477e-15
3.69455e-15
3.66284e-15
3.64573e-15
3.60937e-15
3.67359e-15
3.63556e-15
3.67341e-15
3.69605e-15
3.66319e-15
3.68416e-15
3.67727e-15
3.69804e-15
3.6952e-15
3.68641e-15
3.69146e-15
3.69971e-15
3.71052e-15
3.69057e-15
3.68762e-15
3.69458e-15
3.69414e-15
3.69692e-15
3.69625e-15
3.69866e-15
3.69593e-15
3.69501e-15
3.69723e-15
3.69786e-15
3.69805e-15
3.69819e-15
3.69781e-15
3.61578e-15
3.67792e-15
3.62126e-15
3.68562e-15
3.69327e-15
3.68116e-15
3.68659e-15
3.69739e-15
3.72664e-15
3.7409e-15
3.72087e-15
3.71201e-15
3.71904e-15
3.72018e-15
3.73313e-15
3.72981e-15
3.73042e-15
3.73765e-15
3.7357e-15
3.73138e-15
3.72925e-15
3.73155e-15
3.7293e-15
3.72816e-15
3.73146e-15
3.7323e-15
3.73151e-15
3.73166e-15
3.73177e-15
3.73142e-15
3.57481e-15
3.64337e-15
3.60988e-15
3.65054e-15
3.65025e-15
3.67654e-15
3.73782e-15
3.68392e-15
3.70996e-15
3.71509e-15
3.71827e-15
3.72094e-15
3.74377e-15
3.7561e-15
3.73782e-15
3.73307e-15
3.73942e-15
3.74193e-15
3.74261e-15
3.74448e-15
3.74424e-15
3.74249e-15
3.74199e-15
3.74077e-15
3.73966e-15
3.74251e-15
3.74454e-15
3.74204e-15
3.74262e-15
3.74278e-15
3.62659e-15
3.62545e-15
3.61326e-15
3.66814e-15
3.66299e-15
3.6621e-15
3.61877e-15
3.66662e-15
3.72921e-15
3.72165e-15
3.7143e-15
3.72405e-15
3.73732e-15
3.75848e-15
3.74322e-15
3.72898e-15
3.74362e-15
3.75006e-15
3.74614e-15
3.74635e-15
3.75141e-15
3.74801e-15
3.74472e-15
3.74995e-15
3.75049e-15
3.74944e-15
3.74942e-15
3.7496e-15
3.7495e-15
3.74995e-15
3.67353e-15
3.72899e-15
3.71322e-15
3.64939e-15
3.65533e-15
3.68585e-15
3.6834e-15
3.70426e-15
3.71659e-15
3.72237e-15
3.7315e-15
3.73336e-15
3.7397e-15
3.74883e-15
3.76132e-15
3.76493e-15
3.76403e-15
3.76057e-15
3.76672e-15
3.76962e-15
3.77387e-15
3.77269e-15
3.77125e-15
3.7717e-15
3.77247e-15
3.77167e-15
3.77177e-15
3.77187e-15
3.77154e-15
3.77144e-15
3.63082e-15
3.73515e-15
3.6379e-15
3.65084e-15
3.71061e-15
3.67553e-15
3.71175e-15
3.76668e-15
3.75986e-15
3.75162e-15
3.7626e-15
3.75081e-15
3.73659e-15
3.75106e-15
3.7559e-15
3.75997e-15
3.76655e-15
3.76296e-15
3.7627e-15
3.76107e-15
3.76071e-15
3.76079e-15
3.76424e-15
3.76673e-15
3.76475e-15
3.76373e-15
3.76392e-15
3.7644e-15
3.7646e-15
3.7647e-15
3.65463e-15
3.64156e-15
3.63844e-15
3.62581e-15
3.61201e-15
3.69332e-15
3.7013e-15
3.67261e-15
3.67177e-15
3.68656e-15
3.69519e-15
3.72595e-15
3.72227e-15
3.73789e-15
3.7431e-15
3.75102e-15
3.74161e-15
3.73454e-15
3.73653e-15
3.73803e-15
3.74126e-15
3.74013e-15
3.73951e-15
3.74127e-15
3.73911e-15
3.73886e-15
3.73936e-15
3.73927e-15
3.73886e-15
3.73883e-15
3.62452e-15
3.52515e-15
3.65656e-15
3.65903e-15
3.68674e-15
3.66469e-15
3.71166e-15
3.75273e-15
3.71205e-15
3.73203e-15
3.71314e-15
3.72348e-15
3.72928e-15
3.72155e-15
3.72194e-15
3.73862e-15
3.73462e-15
3.7362e-15
3.73531e-15
3.73825e-15
3.73913e-15
3.73598e-15
3.73598e-15
3.73721e-15
3.737e-15
3.73689e-15
3.73657e-15
3.7367e-15
3.73697e-15
3.73703e-15
3.67787e-15
3.72102e-15
3.6957e-15
3.61376e-15
3.6959e-15
3.67134e-15
3.73808e-15
3.74243e-15
3.72375e-15
3.73953e-15
3.73602e-15
3.73559e-15
3.73263e-15
3.73059e-15
3.73011e-15
3.72944e-15
3.7404e-15
3.73619e-15
3.73431e-15
3.73157e-15
3.73657e-15
3.73852e-15
3.73898e-15
3.73949e-15
3.73983e-15
3.74029e-15
3.74005e-15
3.74001e-15
3.74005e-15
3.74004e-15
3.63601e-15
3.58761e-15
3.63626e-15
3.65293e-15
3.67795e-15
3.7009e-15
3.69916e-15
3.68746e-15
3.70253e-15
3.68333e-15
3.6954e-15
3.68388e-15
3.70457e-15
3.71149e-15
3.69846e-15
3.71413e-15
3.70868e-15
3.71111e-15
3.70628e-15
3.70032e-15
3.70549e-15
3.70787e-15
3.70816e-15
3.7078e-15
3.70851e-15
3.70924e-15
3.70882e-15
3.70889e-15
3.7091e-15
3.70906e-15
3.69038e-15
3.69905e-15
3.71453e-15
3.72368e-15
3.72739e-15
3.73786e-15
3.72412e-15
3.67911e-15
3.74331e-15
3.73025e-15
3.72431e-15
3.71728e-15
3.7295e-15
3.73316e-15
3.71572e-15
3.71551e-15
3.71397e-15
3.70958e-15
3.7108e-15
3.7125e-15
3.71506e-15
3.71801e-15
3.71836e-15
3.7175e-15
3.71736e-15
3.71773e-15
3.71788e-15
3.71819e-15
3.71807e-15
3.71801e-15
3.72766e-15
3.6951e-15
3.63962e-15
3.71807e-15
3.75109e-15
3.70991e-15
3.70096e-15
3.6503e-15
3.67839e-15
3.70234e-15
3.69211e-15
3.7027e-15
3.70946e-15
3.71321e-15
3.71931e-15
3.70629e-15
3.71048e-15
3.7132e-15
3.71364e-15
3.715e-15
3.7123e-15
3.71612e-15
3.71878e-15
3.71598e-15
3.71685e-15
3.71696e-15
3.71678e-15
3.71732e-15
3.71744e-15
3.71731e-15
3.70467e-15
3.63465e-15
3.81319e-15
3.72851e-15
3.70885e-15
3.72596e-15
3.7332e-15
3.74042e-15
3.77145e-15
3.76441e-15
3.77295e-15
3.74644e-15
3.75381e-15
3.75492e-15
3.74451e-15
3.75213e-15
3.75775e-15
3.74461e-15
3.73935e-15
3.74919e-15
3.75248e-15
3.75184e-15
3.75012e-15
3.74861e-15
3.74935e-15
3.74916e-15
3.74978e-15
3.74952e-15
3.74955e-15
3.7496e-15
3.76267e-15
3.79661e-15
3.85047e-15
3.77858e-15
3.76172e-15
3.78208e-15
3.76389e-15
3.75509e-15
3.75473e-15
3.78154e-15
3.78327e-15
3.78674e-15
3.7798e-15
3.77001e-15
3.77102e-15
3.76866e-15
3.76243e-15
3.76682e-15
3.77188e-15
3.77274e-15
3.76763e-15
3.76799e-15
3.77046e-15
3.7714e-15
3.77147e-15
3.77141e-15
3.77067e-15
3.77091e-15
3.77149e-15
3.77175e-15
3.6583e-15
3.73337e-15
3.70689e-15
3.70742e-15
3.74463e-15
3.72873e-15
3.7253e-15
3.73087e-15
3.77558e-15
3.77759e-15
3.76951e-15
3.77097e-15
3.77165e-15
3.75747e-15
3.76844e-15
3.77691e-15
3.76584e-15
3.76344e-15
3.77277e-15
3.77055e-15
3.76607e-15
3.77233e-15
3.77827e-15
3.77356e-15
3.77349e-15
3.77478e-15
3.77539e-15
3.77538e-15
3.77533e-15
3.77531e-15
3.76059e-15
3.76017e-15
3.73542e-15
3.73689e-15
3.75535e-15
3.74e-15
3.73485e-15
3.73733e-15
3.7695e-15
3.78702e-15
3.80005e-15
3.78752e-15
3.78246e-15
3.77267e-15
3.79469e-15
3.78968e-15
3.77998e-15
3.78736e-15
3.78736e-15
3.78995e-15
3.78591e-15
3.7847e-15
3.78623e-15
3.78881e-15
3.79115e-15
3.78771e-15
3.7863e-15
3.78734e-15
3.7876e-15
3.78749e-15
3.80421e-15
3.81198e-15
3.79327e-15
3.71581e-15
3.72702e-15
3.70166e-15
3.69211e-15
3.73335e-15
3.73714e-15
3.73662e-15
3.75807e-15
3.75456e-15
3.75151e-15
3.74928e-15
3.75454e-15
3.76271e-15
3.75633e-15
3.75181e-15
3.75148e-15
3.75733e-15
3.75876e-15
3.75274e-15
3.75642e-15
3.75683e-15
3.75599e-15
3.7555e-15
3.75493e-15
3.75468e-15
3.75485e-15
3.75532e-15
4.01845e-15
3.87537e-15
3.79145e-15
3.69825e-15
3.7561e-15
3.72615e-15
3.75392e-15
3.77564e-15
3.74176e-15
3.74375e-15
3.73428e-15
3.71541e-15
3.72265e-15
3.73712e-15
3.72484e-15
3.71172e-15
3.73344e-15
3.73912e-15
3.73315e-15
3.7365e-15
3.73662e-15
3.73563e-15
3.73195e-15
3.73645e-15
3.73823e-15
3.7365e-15
3.73604e-15
3.73671e-15
3.73647e-15
3.73672e-15
3.72528e-15
3.71254e-15
3.63751e-15
3.64074e-15
3.63195e-15
3.62979e-15
3.69009e-15
3.6893e-15
3.72734e-15
3.73378e-15
3.6903e-15
3.68121e-15
3.679e-15
3.68095e-15
3.6944e-15
3.70428e-15
3.70201e-15
3.6914e-15
3.69869e-15
3.69945e-15
3.69902e-15
3.69912e-15
3.69695e-15
3.69704e-15
3.69649e-15
3.69558e-15
3.69571e-15
3.69579e-15
3.69575e-15
3.69588e-15
3.67851e-15
3.62995e-15
3.59606e-15
3.65956e-15
3.67374e-15
3.68386e-15
3.67397e-15
3.638e-15
3.66706e-15
3.67138e-15
3.68307e-15
3.67706e-15
3.66742e-15
3.66688e-15
3.67329e-15
3.66733e-15
3.67118e-15
3.67138e-15
3.66731e-15
3.66346e-15
3.66453e-15
3.66536e-15
3.66289e-15
3.66326e-15
3.66151e-15
3.66348e-15
3.66266e-15
3.66182e-15
3.66178e-15
3.66157e-15
3.88459e-15
3.80551e-15
3.76194e-15
3.70257e-15
3.63716e-15
3.65367e-15
3.64881e-15
3.65089e-15
3.65295e-15
3.64761e-15
3.68616e-15
3.67624e-15
3.67634e-15
3.66361e-15
3.66452e-15
3.66767e-15
3.65709e-15
3.65182e-15
3.64579e-15
3.64855e-15
3.64998e-15
3.65267e-15
3.64945e-15
3.6484e-15
3.6474e-15
3.64883e-15
3.64628e-15
3.64629e-15
3.6475e-15
3.64748e-15
3.78247e-15
3.76072e-15
3.66309e-15
3.70861e-15
3.71662e-15
3.65128e-15
3.66812e-15
3.69088e-15
3.65162e-15
3.64932e-15
3.64042e-15
3.65948e-15
3.68061e-15
3.65779e-15
3.65258e-15
3.65927e-15
3.63751e-15
3.64997e-15
3.64844e-15
3.64776e-15
3.64575e-15
3.6424e-15
3.64669e-15
3.64813e-15
3.64842e-15
3.64649e-15
3.64539e-15
3.64561e-15
3.64594e-15
3.64639e-15
3.65578e-15
3.79653e-15
3.67726e-15
3.74077e-15
3.66157e-15
3.67778e-15
3.62672e-15
3.62412e-15
3.63277e-15
3.64313e-15
3.66842e-15
3.67028e-15
3.66229e-15
3.67305e-15
3.68266e-15
3.68185e-15
3.67262e-15
3.68042e-15
3.67241e-15
3.66796e-15
3.66028e-15
3.66204e-15
3.66637e-15
3.66715e-15
3.6661e-15
3.66465e-15
3.66578e-15
3.66629e-15
3.66504e-15
3.66476e-15
3.71255e-15
3.72127e-15
3.70329e-15
3.71273e-15
3.72898e-15
3.68396e-15
3.70711e-15
3.70349e-15
3.72417e-15
3.68708e-15
3.67908e-15
3.66371e-15
3.67702e-15
3.68343e-15
3.67587e-15
3.6682e-15
3.67679e-15
3.68122e-15
3.68157e-15
3.66802e-15
3.67378e-15
3.67594e-15
3.67355e-15
3.673e-15
3.67229e-15
3.67195e-15
3.67245e-15
3.67233e-15
3.67111e-15
3.67129e-15
3.67571e-15
3.79421e-15
3.79348e-15
3.73393e-15
3.70141e-15
3.69268e-15
3.73374e-15
3.69294e-15
3.6937e-15
3.68948e-15
3.71982e-15
3.74327e-15
3.70762e-15
3.70377e-15
3.70861e-15
3.69377e-15
3.69741e-15
3.69699e-15
3.6842e-15
3.68555e-15
3.68768e-15
3.68851e-15
3.68967e-15
3.69424e-15
3.6893e-15
3.68755e-15
3.68913e-15
3.68964e-15
3.68929e-15
3.68913e-15
3.68191e-15
3.7349e-15
3.71808e-15
3.75285e-15
3.7454e-15
3.71166e-15
3.74509e-15
3.70652e-15
3.72542e-15
3.72626e-15
3.72473e-15
3.71461e-15
3.71194e-15
3.7312e-15
3.73077e-15
3.73463e-15
3.73169e-15
3.73525e-15
3.72814e-15
3.72519e-15
3.72818e-15
3.72739e-15
3.72928e-15
3.7284e-15
3.72765e-15
3.72682e-15
3.72701e-15
3.72783e-15
3.72804e-15
3.72818e-15
3.65036e-15
3.6684e-15
3.69788e-15
3.79525e-15
3.72527e-15
3.7615e-15
3.77891e-15
3.72639e-15
3.78679e-15
3.78572e-15
3.77456e-15
3.75964e-15
3.75676e-15
3.78122e-15
3.7753e-15
3.76333e-15
3.7666e-15
3.76726e-15
3.76914e-15
3.76951e-15
3.76989e-15
3.77279e-15
3.76974e-15
3.77039e-15
3.77236e-15
3.77159e-15
3.77131e-15
3.77142e-15
3.77148e-15
3.77145e-15
3.63083e-15
3.7724e-15
3.6435e-15
3.7385e-15
3.78007e-15
3.79527e-15
3.81379e-15
3.80732e-15