/*--------------------------------*- C++ -*----------------------------------*\
| =========                 |                                                 |
| \\      /  F ield         | OpenFOAM: The Open Source CFD Toolbox           |
|  \\    /   O peration     | Version:  2306                                  |
|   \\  /    A nd           | Website:  www.openfoam.com                      |
|    \\/     M anipulation  |                                                 |
\*---------------------------------------------------------------------------*/
FoamFile
{
    version     2.0;
    format      ascii;
    arch        "LSB;label=32;scalar=64";
    class       volVectorField;
    location    "2197";
    object      U;
}
// * * * * * * * * * * * * * * * * * * * * * * * * * * * * * * * * * * * * * //

dimensions      [0 1 -1 0 0 0 0];

internalField   nonuniform List<vector> 
2800
(
(2.29445e-16 3.00781e-16 1.9294)
(-1.75835e-15 -4.88065e-17 1.94453)
(-6.93741e-16 8.39267e-17 1.95709)
(-4.46055e-16 7.36725e-17 1.96812)
(-3.86775e-16 6.80308e-17 1.97763)
(-3.52429e-16 2.23781e-17 1.98556)
(-2.78169e-16 3.68594e-17 1.99189)
(-2.3872e-16 -2.8916e-17 1.99662)
(-2.473e-16 7.93083e-18 1.99977)
(-2.65759e-16 4.13694e-17 2.00134)
(-2.64787e-16 7.5275e-17 2.00134)
(-2.27841e-16 6.06632e-17 1.99977)
(-1.60163e-16 2.79205e-17 1.99662)
(-1.10935e-16 -4.52021e-17 1.99189)
(-8.29278e-17 -6.52631e-17 1.98556)
(-4.86294e-17 -1.86156e-17 1.97763)
(-1.23255e-17 5.6316e-17 1.96812)
(-2.57357e-18 7.87162e-17 1.95709)
(-5.07164e-17 7.86953e-17 1.94453)
(-9.33916e-17 4.01181e-17 1.9294)
(-6.48566e-17 -1.62862e-15 1.94457)
(-6.41601e-16 -5.42806e-16 1.96278)
(-5.81283e-16 -2.15982e-16 1.97799)
(-4.31978e-16 -9.25758e-17 1.99115)
(-4.1261e-16 -1.96535e-17 2.00239)
(-3.16299e-16 2.14899e-18 2.01174)
(-2.7111e-16 2.66733e-17 2.01921)
(-2.57048e-16 1.17801e-17 2.02479)
(-2.10554e-16 -3.17477e-17 2.02851)
(-2.291e-16 -1.16133e-17 2.03036)
(-2.75159e-16 2.24343e-17 2.03036)
(-2.32164e-16 1.16109e-16 2.0285)
(-2.0249e-16 1.6484e-16 2.02479)
(-1.93778e-16 9.79737e-17 2.01921)
(-8.71134e-17 7.78081e-17 2.01174)
(5.66694e-19 1.00114e-16 2.00239)
(2.2409e-17 1.22825e-16 1.99115)
(-4.04274e-17 1.33388e-16 1.97799)
(-9.08087e-17 1.10799e-16 1.96278)
(-6.14695e-17 8.09979e-17 1.94457)
(7.94879e-18 -5.94799e-16 1.95711)
(-3.27487e-16 -5.1747e-16 1.97799)
(-3.84356e-16 -3.01609e-16 1.99579)
(-3.45212e-16 -2.17303e-16 2.01097)
(-3.40711e-16 -1.15956e-16 2.02381)
(-3.31196e-16 -4.17429e-17 2.03443)
(-2.76774e-16 -5.18596e-17 2.04289)
(-2.88346e-16 5.0622e-17 2.04921)
(-2.65177e-16 -4.39487e-17 2.05341)
(-1.97403e-16 -5.05437e-17 2.05551)
(-1.14872e-16 1.59368e-18 2.05551)
(-6.69153e-17 1.6495e-16 2.05341)
(-1.72261e-16 8.66273e-17 2.04921)
(-1.98474e-16 1.2026e-16 2.04289)
(-7.5087e-17 8.98668e-17 2.03443)
(-1.71309e-17 1.17174e-16 2.02381)
(-2.32314e-17 1.7114e-16 2.01097)
(-6.7949e-17 1.55531e-16 1.99579)
(-1.20565e-16 1.36912e-16 1.97799)
(-7.43789e-17 9.41572e-17 1.95712)
(-3.66443e-17 -3.5374e-16 1.96814)
(-2.20027e-16 -3.43304e-16 1.99116)
(-2.98244e-16 -2.83869e-16 2.01098)
(-2.88519e-16 -2.47245e-16 2.02788)
(-2.65003e-16 -1.83406e-16 2.04213)
(-2.7201e-16 -1.12113e-16 2.05388)
(-1.97373e-16 -1.61106e-16 2.0632)
(-2.4895e-16 -8.95332e-17 2.07017)
(-3.12481e-16 -4.98841e-17 2.0748)
(-1.75164e-16 1.40454e-17 2.07711)
(-3.85525e-17 8.69602e-17 2.07711)
(-1.342e-16 3.10756e-17 2.0748)
(-2.29289e-16 -7.27838e-17 2.07017)
(-1.60825e-16 2.01907e-18 2.0632)
(-5.27247e-17 -7.04396e-17 2.05387)
(9.63748e-17 -1.47659e-17 2.04213)
(5.53668e-17 1.96451e-17 2.02788)
(-8.82901e-17 6.47337e-17 2.01097)
(-1.4187e-16 5.0872e-17 1.99116)
(-6.83957e-17 8.7375e-17 1.96814)
(-6.40476e-17 -3.08204e-16 1.97766)
(-1.63613e-16 -2.69548e-16 2.00241)
(-2.71232e-16 -2.15204e-16 2.02382)
(-2.48848e-16 -1.46971e-16 2.04214)
(-2.10314e-16 -8.80288e-17 2.05757)
(-3.21449e-16 -1.0051e-16 2.07027)
(-2.62287e-16 -1.35899e-16 2.08035)
(-1.76909e-16 -1.9287e-16 2.08787)
(-1.53193e-16 -3.88825e-17 2.09287)
(-5.65424e-17 -5.24866e-17 2.09536)
(-9.92058e-17 -8.03564e-17 2.09536)
(-2.2479e-16 -1.92065e-16 2.09286)
(-1.85532e-16 -8.3543e-17 2.08787)
(-1.63145e-16 -7.08794e-18 2.08035)
(-4.59097e-17 -7.64385e-17 2.07027)
(1.03745e-16 -6.70922e-17 2.05757)
(6.87511e-17 -1.4776e-16 2.04213)
(-3.46171e-17 -4.74531e-17 2.02382)
(-6.49327e-17 -6.99146e-18 2.00241)
(-3.0084e-17 5.81002e-17 1.97766)
(-1.02328e-17 -2.54287e-16 1.98559)
(-8.84497e-17 -2.50709e-16 2.01177)
(-1.60936e-16 -1.96562e-16 2.03445)
(-1.6069e-16 -1.17081e-16 2.05388)
(-2.02726e-16 -3.71667e-17 2.07027)
(-3.12002e-16 -8.28504e-17 2.08377)
(-2.92791e-16 -4.55701e-17 2.09448)
(-1.52484e-16 -4.12113e-17 2.10246)
(-1.65011e-16 -2.05141e-18 2.10777)
(-2.17085e-16 -8.22823e-17 2.11041)
(-1.81323e-16 -2.04942e-16 2.11041)
(-1.27483e-16 -2.18823e-16 2.10777)
(-3.07236e-17 -9.65893e-17 2.10246)
(-1.36284e-16 1.71279e-18 2.09448)
(-9.2776e-17 -3.01855e-17 2.08377)
(3.27968e-17 -2.81694e-19 2.07027)
(6.32173e-17 -1.02665e-17 2.05388)
(4.31316e-17 1.45332e-17 2.03445)
(-4.79873e-17 1.17966e-16 2.01177)
(-5.20865e-17 1.01891e-16 1.98559)
(-6.10029e-17 -2.27357e-16 1.99192)
(-8.42423e-17 -1.97288e-16 2.01923)
(-1.39606e-16 -2.1151e-16 2.0429)
(-1.06129e-16 -2.5437e-16 2.06321)
(-1.78081e-16 -1.97275e-16 2.08036)
(-3.28423e-16 -1.93939e-16 2.09448)
(-2.28916e-16 -1.75832e-16 2.10569)
(-1.34951e-16 -9.19617e-17 2.11405)
(-1.93784e-16 -8.6225e-17 2.1196)
(-2.61014e-16 -3.20075e-17 2.12237)
(-2.35508e-16 -7.70404e-17 2.12237)
(-1.10072e-16 -1.90816e-17 2.1196)
(3.71352e-17 1.53346e-17 2.11405)
(-9.65426e-17 3.73603e-17 2.10569)
(-4.69597e-17 7.21771e-17 2.09448)
(1.20644e-16 7.41953e-17 2.08035)
(5.15821e-17 1.30895e-16 2.06321)
(5.73364e-17 7.3789e-17 2.0429)
(-1.77835e-17 1.25071e-16 2.01923)
(-1.10358e-16 8.06571e-17 1.99192)
(-2.14228e-17 -2.00787e-16 1.99665)
(-6.65813e-17 -1.71401e-16 2.02481)
(-2.21075e-16 -1.32686e-16 2.04922)
(-1.64062e-16 -1.66737e-16 2.07018)
(-1.51186e-16 -1.6841e-16 2.08788)
(-2.97728e-16 -1.74274e-16 2.10247)
(-2.09696e-16 -1.7137e-16 2.11405)
(-7.16952e-17 -1.56693e-16 2.12269)
(-1.05267e-16 -1.12154e-16 2.12843)
(-2.05832e-16 -7.79838e-17 2.13129)
(-1.66794e-16 2.19121e-17 2.13129)
(-3.39692e-17 7.30975e-17 2.12843)
(1.85538e-17 7.75226e-17 2.12269)
(-8.52381e-17 8.09984e-17 2.11405)
(-5.59499e-17 1.30877e-16 2.10247)
(8.32147e-17 9.10063e-17 2.08788)
(4.60986e-17 6.14067e-17 2.07018)
(2.14598e-17 4.85169e-17 2.04922)
(-5.52268e-17 4.2723e-17 2.02481)
(-1.0706e-16 2.3199e-17 1.99665)
(-4.31907e-17 -1.68426e-16 1.99979)
(-1.55217e-17 -2.07537e-16 2.02853)
(-1.3351e-16 -1.73518e-16 2.05343)
(-1.45867e-16 -1.04654e-16 2.07481)
(-1.86127e-16 -1.46242e-16 2.09287)
(-3.32255e-16 -1.20145e-16 2.10777)
(-2.222e-16 -8.9493e-17 2.1196)
(-8.45938e-17 -1.19819e-16 2.12843)
(-1.15519e-16 -9.81222e-17 2.13429)
(-1.25723e-16 -8.02081e-17 2.13722)
(-8.22614e-17 6.2664e-18 2.13722)
(-5.38329e-17 -4.93568e-18 2.13429)
(4.04369e-17 -6.99541e-17 2.12843)
(-4.70527e-17 -2.40645e-17 2.1196)
(-3.18922e-17 1.74679e-17 2.10777)
(5.67347e-17 -3.01551e-17 2.09287)
(1.65198e-17 -7.43721e-17 2.07481)
(3.74915e-17 -3.06285e-18 2.05343)
(-3.57369e-17 -4.26735e-17 2.02852)
(-8.95935e-17 -3.19288e-17 1.99979)
(-9.01664e-17 -1.48152e-16 2.00137)
(-7.59024e-17 -1.16205e-16 2.03038)
(-1.29755e-16 -2.1551e-16 2.05553)
(-1.44284e-16 -1.69235e-16 2.07712)
(-1.68969e-16 -2.02498e-16 2.09537)
(-2.45335e-16 -1.39814e-16 2.11042)
(-2.17654e-16 5.88612e-18 2.12237)
(-8.58127e-17 -4.09018e-17 2.13129)
(-6.87545e-17 -5.51754e-17 2.13722)
(-1.0265e-16 -3.32576e-17 2.14018)
(-9.16598e-17 2.70186e-18 2.14018)
(-1.08759e-16 -2.99472e-17 2.13722)
(1.1367e-19 -6.96936e-17 2.13129)
(3.28056e-18 -1.34875e-16 2.12237)
(-5.23389e-17 -3.52082e-17 2.11042)
(4.30796e-18 -1.61075e-16 2.09537)
(8.42262e-17 -1.08526e-16 2.07712)
(6.28671e-17 -7.67556e-17 2.05553)
(-7.16405e-17 -1.00518e-16 2.03038)
(-6.52421e-17 -7.28079e-17 2.00137)
(-8.03973e-20 -1.34816e-16 2.00137)
(-8.68771e-17 -1.23989e-16 2.03038)
(-1.92508e-16 -1.77331e-16 2.05553)
(-1.45786e-16 -1.99311e-16 2.07712)
(-1.66944e-16 -1.84119e-16 2.09537)
(-1.35071e-16 -1.15719e-16 2.11042)
(-1.31139e-16 1.32104e-17 2.12237)
(-1.49582e-16 -3.87026e-17 2.13129)
(-1.11184e-16 -8.15036e-17 2.13722)
(-6.94924e-17 -6.90125e-17 2.14018)
(-8.01655e-17 3.69024e-17 2.14018)
(-1.26364e-16 -2.87805e-17 2.13722)
(-6.28779e-17 -1.05372e-16 2.13129)
(-1.00337e-17 -1.7236e-16 2.12237)
(-4.9255e-17 -9.25526e-17 2.11042)
(-4.3802e-18 -1.49209e-16 2.09536)
(1.09303e-16 -8.79989e-17 2.07712)
(5.89949e-17 -8.98612e-17 2.05553)
(-1.90329e-17 -1.0853e-16 2.03038)
(-1.94927e-18 -4.32551e-17 2.00137)
(-6.98453e-17 -1.12756e-16 1.99979)
(-1.29471e-16 -1.90691e-16 2.02853)
(-2.13242e-16 -1.928e-16 2.05343)
(-1.63681e-16 -1.91439e-16 2.07481)
(-9.87457e-17 -1.67397e-16 2.09287)
(-6.09591e-17 -9.68142e-17 2.10777)
(-1.47338e-16 -1.18976e-16 2.1196)
(-1.84167e-16 -1.55627e-16 2.12843)
(-1.01946e-16 -1.55047e-16 2.13429)
(1.43578e-17 -1.01815e-16 2.13722)
(-5.21813e-17 -3.92334e-18 2.13722)
(-2.5203e-16 -6.14728e-17 2.13429)
(-1.42283e-16 -9.49953e-17 2.12842)
(1.85841e-17 -1.08424e-16 2.1196)
(-2.28639e-17 -1.13387e-16 2.10777)
(1.32501e-17 -1.51229e-16 2.09287)
(1.50504e-16 -1.55776e-16 2.07481)
(5.58343e-17 -1.46939e-16 2.05343)
(-1.78612e-17 -1.24828e-16 2.02852)
(3.0624e-17 -3.59933e-17 1.99979)
(-6.56005e-17 -1.12086e-16 1.99665)
(-1.85503e-16 -7.96751e-17 2.02481)
(-2.16733e-16 -8.37313e-17 2.04922)
(-1.40315e-16 -6.57433e-17 2.07018)
(-8.76427e-17 -9.85979e-17 2.08788)
(-9.98742e-17 -1.19636e-16 2.10247)
(-1.97472e-16 -1.85226e-16 2.11405)
(-1.9196e-16 -1.12957e-16 2.12269)
(-5.92704e-17 -1.39371e-16 2.12842)
(8.2013e-17 -8.21212e-17 2.13129)
(-3.88932e-17 -7.6291e-17 2.13129)
(-2.18382e-16 1.97347e-17 2.12842)
(-1.11577e-16 6.88999e-17 2.12268)
(-2.71484e-17 8.70385e-18 2.11404)
(-8.55069e-17 -3.44234e-20 2.10246)
(-4.05356e-17 -1.49433e-17 2.08787)
(1.26168e-16 -6.30751e-17 2.07018)
(1.06062e-16 -1.2059e-16 2.04922)
(9.9629e-17 -3.54933e-17 2.02481)
(8.13216e-17 4.04078e-17 1.99665)
(-7.40339e-18 -1.31389e-16 1.99192)
(-1.38869e-16 -2.71538e-17 2.01923)
(-2.22249e-16 -9.39917e-18 2.0429)
(-1.93468e-16 -8.4484e-18 2.06321)
(-1.66416e-16 -1.55772e-17 2.08036)
(-1.66758e-16 2.8565e-17 2.09448)
(-1.59127e-16 4.71516e-17 2.10569)
(-1.47645e-16 6.79977e-17 2.11404)
(-7.27425e-17 6.60732e-17 2.1196)
(8.06754e-17 1.60839e-17 2.12237)
(5.30352e-17 -9.79735e-17 2.12237)
(-1.08668e-16 3.03114e-17 2.1196)
(-1.58912e-16 8.24721e-17 2.11404)
(-4.93362e-17 9.85562e-17 2.10568)
(-4.16321e-17 1.12122e-16 2.09448)
(-4.90057e-17 8.86081e-17 2.08035)
(5.71844e-17 4.03022e-17 2.06321)
(9.54709e-17 -4.6066e-17 2.0429)
(1.41464e-16 -3.57721e-17 2.01923)
(8.17766e-17 -2.53942e-18 1.99192)
(4.10312e-17 -1.20972e-16 1.98559)
(-1.0519e-16 -8.05569e-17 2.01177)
(-2.16765e-16 -6.71835e-17 2.03445)
(-1.48187e-16 -1.04539e-16 2.05388)
(-5.23568e-17 -1.18159e-16 2.07027)
(-4.93739e-17 2.20782e-17 2.08377)
(-1.6933e-16 2.88523e-17 2.09448)
(-1.78194e-16 4.07845e-17 2.10246)
(-1.10948e-16 6.46562e-17 2.10776)
(-7.86812e-17 5.37213e-17 2.11041)
(-1.87321e-17 4.85239e-17 2.11041)
(-3.47238e-17 1.57476e-17 2.10776)
(-4.96578e-17 9.69838e-17 2.10246)
(-6.85931e-18 1.21402e-16 2.09448)
(-1.02752e-16 9.62291e-17 2.08377)
(-1.21986e-16 8.72729e-17 2.07027)
(-1.17087e-17 3.7602e-17 2.05388)
(4.12919e-17 2.58066e-17 2.03445)
(1.4701e-16 -2.95982e-17 2.01176)
(1.21522e-16 -1.9941e-17 1.98559)
(-1.44918e-17 -1.12895e-16 1.97766)
(-1.24667e-16 -1.39756e-16 2.00241)
(-2.63422e-16 -7.14537e-17 2.02382)
(-2.30961e-16 -1.29393e-16 2.04214)
(-3.20926e-17 -1.45894e-16 2.05757)
(-2.38505e-17 -1.06112e-16 2.07027)
(-1.4302e-16 -1.24501e-16 2.08035)
(-1.06159e-16 -5.75553e-17 2.08787)
(-4.89817e-17 -1.55987e-17 2.09286)
(7.61636e-17 6.05215e-17 2.09536)
(2.46363e-17 1.32173e-16 2.09536)
(-5.62619e-17 7.04712e-17 2.09286)
(-5.91287e-17 9.34622e-17 2.08787)
(-6.00048e-17 6.52589e-17 2.08035)
(-8.99952e-17 3.06429e-17 2.07027)
(-1.25059e-16 1.32375e-16 2.05756)
(-2.14177e-17 9.24381e-17 2.04213)
(3.29197e-17 1.26901e-16 2.02382)
(1.19422e-16 1.24298e-16 2.00241)
(1.65454e-16 4.16906e-17 1.97766)
(-7.79985e-17 -1.32153e-16 1.96814)
(-1.15603e-16 -1.45342e-16 1.99116)
(-2.46014e-16 -5.19139e-17 2.01097)
(-2.25592e-16 1.00326e-17 2.02788)
(-4.23804e-17 1.12628e-16 2.04213)
(-3.829e-17 -2.90561e-17 2.05387)
(-1.25675e-16 -6.29051e-17 2.0632)
(-5.9926e-17 -2.93262e-17 2.07017)
(2.25506e-17 -1.2711e-18 2.07479)
(8.87104e-17 1.48329e-17 2.0771)
(2.24065e-18 -4.87027e-17 2.0771)
(-6.92165e-17 1.70501e-17 2.07479)
(-6.5282e-17 -1.85694e-17 2.07016)
(-8.65925e-17 4.98769e-18 2.0632)
(-5.43932e-17 -7.15474e-18 2.05387)
(-8.84547e-17 8.71261e-17 2.04213)
(-4.61827e-17 9.03479e-17 2.02788)
(5.06784e-17 9.0592e-17 2.01097)
(7.48336e-17 1.63078e-16 1.99116)
(6.92002e-17 5.32524e-17 1.96814)
(-7.68025e-17 -1.52582e-16 1.95712)
(-1.02789e-16 -1.07797e-16 1.97799)
(-1.48193e-16 -5.04434e-17 1.99579)
(-7.70153e-17 8.00971e-17 2.01097)
(-8.14191e-17 1.15923e-16 2.02381)
(-2.26679e-16 3.23271e-18 2.03443)
(-1.52415e-16 -7.45268e-17 2.04289)
(-2.80043e-17 -6.40031e-17 2.04921)
(1.56533e-17 -3.03787e-17 2.05341)
(4.83469e-17 -7.02992e-17 2.05551)
(4.18723e-17 -1.54785e-16 2.05551)
(-2.20113e-17 -8.47345e-17 2.05341)
(-8.42192e-17 -1.00754e-16 2.04921)
(-6.9332e-17 -5.88176e-17 2.04289)
(-2.5626e-17 -2.56133e-17 2.03443)
(-5.59334e-17 5.74804e-17 2.02381)
(-6.86117e-17 3.52286e-17 2.01097)
(5.16142e-17 1.29062e-17 1.99579)
(5.61557e-17 4.52177e-17 1.97799)
(-1.38484e-18 2.94455e-17 1.95712)
(-6.4835e-17 -8.26273e-17 1.94457)
(-6.04023e-17 -5.072e-17 1.96278)
(-7.05257e-17 -3.15653e-18 1.97799)
(-5.40855e-17 6.06143e-17 1.99115)
(-1.19476e-16 -3.04115e-17 2.00239)
(-2.5509e-16 1.11554e-17 2.01174)
(-1.83626e-16 8.71004e-18 2.01921)
(5.28322e-18 2.71482e-17 2.02479)
(3.66038e-17 -3.24857e-17 2.0285)
(-2.08148e-17 -5.32826e-17 2.03036)
(6.50627e-18 -8.3637e-17 2.03036)
(-3.92646e-18 -1.0337e-16 2.0285)
(-4.11738e-17 -8.6577e-17 2.02479)
(-2.84155e-17 -8.53115e-17 2.01921)
(4.88315e-17 -5.90446e-17 2.01174)
(-5.77159e-17 -4.40775e-17 2.00239)
(-1.47999e-16 -6.73788e-18 1.99115)
(3.20728e-18 8.33098e-19 1.97799)
(4.88931e-17 -3.05585e-17 1.96278)
(-1.45846e-17 -1.34046e-17 1.94457)
(-8.69338e-18 3.73822e-18 1.9294)
(-3.35243e-17 -3.25675e-17 1.94453)
(-3.65782e-17 -2.60875e-17 1.95709)
(-8.69526e-17 -4.8048e-17 1.96812)
(-1.39701e-16 -7.30296e-17 1.97763)
(-2.0273e-16 1.18925e-17 1.98556)
(-1.22112e-16 6.30053e-17 1.99189)
(-4.88816e-17 3.81882e-17 1.99662)
(-5.25929e-17 -9.43794e-17 1.99977)
(1.44048e-17 -5.9356e-17 2.00134)
(1.33001e-17 -6.26989e-17 2.00134)
(-8.45353e-18 -4.51949e-17 1.99977)
(-6.11901e-17 -4.46071e-17 1.99662)
(-5.98901e-17 -6.0661e-17 1.99189)
(9.29461e-18 -8.34102e-17 1.98556)
(-1.08516e-17 -1.24154e-16 1.97763)
(-6.9605e-17 -2.46979e-17 1.96812)
(-3.69366e-17 4.4681e-18 1.95709)
(3.13631e-17 3.48585e-18 1.94453)
(2.47795e-17 3.44609e-18 1.9294)
(-4.99517e-17 3.60366e-17 1.90125)
(-3.412e-18 3.92425e-17 1.86689)
(2.14557e-17 3.47484e-17 1.83127)
(4.81104e-17 -1.92035e-17 1.79464)
(5.88309e-17 -3.66204e-17 1.75706)
(3.64076e-17 -3.18809e-17 1.71856)
(7.11156e-18 -4.63672e-18 1.67909)
(-1.17486e-17 6.18874e-18 1.63857)
(-4.09548e-17 1.92654e-17 1.5969)
(-9.59433e-17 5.26022e-17 1.5539)
(-1.34187e-16 7.42183e-17 1.50931)
(-1.30833e-16 6.62131e-17 1.46283)
(-1.12962e-16 5.31394e-17 1.41411)
(-9.44605e-17 4.02797e-17 1.36276)
(-6.52439e-17 1.84875e-17 1.30829)
(-4.28139e-17 4.53965e-18 1.25011)
(-2.75874e-17 8.105e-19 1.18756)
(-3.05097e-18 -1.14312e-17 1.11988)
(1.85103e-17 -2.13973e-17 1.04627)
(1.98676e-17 -1.34221e-17 0.966)
(1.25045e-17 9.72772e-19 0.878512)
(8.6848e-18 1.06033e-17 0.783075)
(9.44716e-18 1.46144e-17 0.679744)
(1.27724e-17 1.43702e-17 0.571422)
(1.51103e-17 1.28337e-17 0.463456)
(1.4223e-17 1.19563e-17 0.360961)
(1.15595e-17 1.08012e-17 0.266611)
(8.77381e-18 8.32708e-18 0.180903)
(5.60743e-18 5.14832e-18 0.103363)
(1.86431e-18 1.98185e-18 0.0332827)
(1.80256e-17 8.55076e-17 1.91624)
(3.94011e-17 5.38849e-17 1.88127)
(4.34699e-18 8.41474e-17 1.84558)
(4.82976e-18 4.53945e-17 1.80904)
(3.61813e-17 5.21906e-18 1.77162)
(2.42377e-17 -1.79549e-17 1.73331)
(2.15298e-17 -3.86429e-17 1.69406)
(-2.37771e-18 -3.70791e-17 1.65379)
(-2.52936e-17 -3.58252e-17 1.6124)
(-3.55522e-17 -2.8628e-17 1.56972)
(-3.7702e-17 -1.8793e-17 1.52557)
(-3.45709e-17 -8.26592e-18 1.47961)
(-3.71332e-17 6.45427e-19 1.43149)
(-3.8573e-17 1.01175e-17 1.3808)
(-2.61387e-17 6.40378e-18 1.32705)
(6.13311e-18 -1.18634e-17 1.26968)
(1.8733e-17 -1.52826e-17 1.208)
(7.10984e-18 -1.0148e-18 1.14124)
(3.40405e-18 7.37622e-18 1.06855)
(5.13989e-18 1.20318e-17 0.989107)
(8.58059e-18 1.60807e-17 0.902201)
(1.30194e-17 1.9154e-17 0.807077)
(1.9821e-17 1.9363e-17 0.70344)
(2.09816e-17 2.17454e-17 0.593488)
(1.57081e-17 2.55792e-17 0.482507)
(1.15981e-17 2.57642e-17 0.376228)
(1.03803e-17 2.18142e-17 0.278005)
(9.51498e-18 1.63912e-17 0.188664)
(7.26488e-18 1.09673e-17 0.107808)
(2.19511e-18 2.99072e-18 0.0347173)
(-2.52302e-17 1.17143e-16 1.92844)
(5.12774e-18 7.90918e-17 1.89373)
(-9.7304e-18 6.20616e-17 1.85818)
(1.06661e-17 5.95834e-17 1.82177)
(4.13685e-17 2.20052e-17 1.78452)
(2.99808e-17 2.02419e-18 1.74639)
(2.29573e-17 -2.61096e-17 1.70734)
(2.70479e-17 -3.62688e-17 1.66729)
(4.14292e-17 -5.58559e-17 1.62614)
(4.34358e-17 -6.20267e-17 1.58374)
(2.95005e-17 -5.41041e-17 1.53991)
(3.82265e-18 -4.06564e-17 1.49436)
(-1.69447e-17 -3.24411e-17 1.4467)
(-2.96483e-17 -2.61389e-17 1.39653)
(-3.43316e-17 -2.20237e-17 1.34337)
(-3.17636e-17 -2.32167e-17 1.28665)
(-3.48431e-17 -2.53078e-17 1.2257)
(-2.25185e-17 -3.54957e-17 1.15972)
(-5.48681e-18 -4.64876e-17 1.08783)
(9.26393e-19 -4.83907e-17 1.00914)
(1.05859e-18 -4.45154e-17 0.922819)
(9.27845e-19 -3.86556e-17 0.828101)
(-8.73041e-19 -3.05597e-17 0.724393)
(-1.00446e-17 -1.73911e-17 0.613235)
(-1.32659e-17 -8.26742e-18 0.499732)
(-8.18799e-18 -5.43451e-18 0.390105)
(-3.62862e-18 -3.38981e-18 0.288377)
(-7.93925e-19 -1.32702e-18 0.195729)
(1.32163e-18 -1.53905e-19 0.111852)
(4.00587e-19 1.34397e-19 0.0360218)
(-1.61871e-17 8.25567e-17 1.93874)
(-3.1667e-17 9.50666e-17 1.90437)
(-2.44634e-17 7.7562e-17 1.86904)
(7.36831e-18 7.9534e-17 1.83283)
(1.39645e-17 7.44639e-17 1.79574)
(9.56784e-18 8.20174e-17 1.75778)
(6.8936e-17 5.64346e-17 1.71891)
(8.90671e-17 3.29979e-17 1.67905)
(7.21583e-17 2.85358e-17 1.63811)
(8.02424e-17 1.36128e-17 1.59594)
(7.43739e-17 9.78557e-18 1.55236)
(5.46678e-17 1.54594e-17 1.50711)
(5.04013e-17 1.35593e-17 1.45982)
(6.4293e-17 5.02361e-18 1.41008)
(7.34456e-17 7.73349e-18 1.3574)
(5.90196e-17 2.45172e-17 1.30124)
(4.20795e-17 4.15957e-17 1.2409)
(3.995e-17 5.07606e-17 1.17559)
(4.22827e-17 5.63788e-17 1.1044)
(4.5433e-17 5.96025e-17 1.02639)
(4.87298e-17 6.12629e-17 0.940637)
(4.96847e-17 6.29478e-17 0.846363)
(4.74827e-17 6.39049e-17 0.742733)
(3.90175e-17 6.41844e-17 0.630704)
(2.52021e-17 6.46301e-17 0.515122)
(1.76287e-17 5.87576e-17 0.402576)
(1.88372e-17 4.55554e-17 0.297718)
(1.54976e-17 3.28703e-17 0.202095)
(9.79639e-18 2.02625e-17 0.115497)
(3.60117e-18 7.2229e-18 0.0371975)
(-7.43587e-17 1.8415e-17 1.94746)
(-6.90938e-17 -6.93555e-18 1.91337)
(-4.83731e-17 -3.55915e-18 1.87825)
(-2.63022e-18 2.46863e-17 1.84221)
(3.67921e-17 2.58839e-17 1.80529)
(4.34205e-17 3.38556e-17 1.76749)
(5.44451e-19 5.65641e-17 1.72877)
(-3.32352e-17 5.03058e-17 1.68908)
(-8.47439e-18 3.94199e-17 1.6483)
(1.26636e-17 3.55023e-17 1.60631)
(2.30576e-17 3.10183e-17 1.56294)
(7.03281e-18 3.4961e-17 1.51794)
(-3.52964e-18 4.02912e-17 1.47095)
(2.8059e-17 2.35383e-17 1.42155)
(5.78541e-17 8.56829e-18 1.36927)
(4.81108e-17 1.08247e-17 1.31356)
(2.72217e-17 2.17651e-17 1.25373)
(2.24368e-17 2.57937e-17 1.18898)
(1.52767e-17 3.00602e-17 1.1184)
(5.9463e-18 3.4624e-17 1.04097)
(1.02154e-17 3.25854e-17 0.95574)
(1.45715e-17 3.0425e-17 0.8619)
(4.09488e-18 3.40303e-17 0.75843)
(-1.54742e-18 3.4667e-17 0.645789)
(5.18502e-18 2.90807e-17 0.528531)
(1.06107e-17 2.34612e-17 0.413502)
(1.02462e-17 1.85898e-17 0.305921)
(7.60918e-18 1.26844e-17 0.207688)
(3.56391e-18 5.22417e-18 0.118699)
(2.64148e-18 5.08787e-18 0.0382306)
(-1.02833e-16 5.63442e-17 1.95468)
(-7.39025e-17 2.61667e-17 1.9208)
(4.28078e-17 1.78179e-17 1.88587)
(8.23936e-17 2.6693e-17 1.84998)
(4.0606e-17 2.35544e-17 1.8132)
(1.98971e-17 2.13202e-17 1.77553)
(3.97966e-18 1.28362e-17 1.73695)
(2.07092e-17 5.85599e-18 1.69738)
(7.74793e-17 -6.09719e-18 1.65675)
(9.93652e-17 -8.22788e-18 1.61491)
(7.37223e-17 1.24237e-18 1.57171)
(6.06935e-17 9.8256e-18 1.5269)
(4.13217e-17 2.4998e-17 1.48016)
(2.83644e-17 3.18223e-17 1.43104)
(3.25388e-17 2.4494e-17 1.37909)
(3.34663e-17 1.6591e-17 1.32374)
(3.16021e-17 1.1547e-17 1.26433)
(1.23627e-17 1.44015e-17 1.20005)
(-7.78505e-18 1.88566e-17 1.12996)
(-1.46669e-17 2.04814e-17 1.05303)
(-8.55385e-18 1.85486e-17 0.96824)
(-1.4918e-18 1.64114e-17 0.874726)
(1.36137e-18 1.56164e-17 0.771374)
(1.84632e-18 1.62284e-17 0.658311)
(4.31956e-18 1.62886e-17 0.539747)
(5.06452e-18 1.60829e-17 0.422688)
(5.29148e-18 1.43694e-17 0.31283)
(4.53808e-18 1.0151e-17 0.212402)
(1.69686e-18 3.33389e-18 0.121399)
(2.68196e-18 6.04238e-18 0.0391016)
(-1.29717e-16 8.18912e-17 1.96044)
(-3.18424e-17 1.11487e-16 1.92672)
(4.2193e-17 9.8499e-17 1.89193)
(2.05098e-17 9.3854e-17 1.85617)
(2.82748e-17 1.12161e-16 1.8195)
(4.32315e-17 1.13574e-16 1.78194)
(3.01494e-17 1.30649e-16 1.74346)
(6.2231e-17 1.47811e-16 1.704)
(1.1041e-16 1.44966e-16 1.66348)
(1.22962e-16 1.35789e-16 1.62176)
(1.39228e-16 1.25853e-16 1.57868)
(1.56513e-16 1.14807e-16 1.53404)
(1.32854e-16 1.15443e-16 1.48749)
(9.16184e-17 1.22526e-16 1.4386)
(7.39863e-17 1.2334e-16 1.3869)
(7.28244e-17 1.23044e-16 1.33185)
(7.76125e-17 1.22335e-16 1.27277)
(8.85424e-17 1.21331e-16 1.20885)
(8.85748e-17 1.2231e-16 1.13915)
(7.97035e-17 1.25252e-16 1.06262)
(6.96123e-17 1.26756e-16 0.978182)
(5.51353e-17 1.27237e-16 0.884897)
(4.20306e-17 1.24394e-16 0.78162)
(4.06638e-17 1.15099e-16 0.668273)
(4.18677e-17 1.01791e-16 0.548726)
(3.51545e-17 8.72778e-17 0.430075)
(2.50333e-17 7.0854e-17 0.318397)
(1.65411e-17 5.13352e-17 0.216203)
(9.31854e-18 2.89349e-17 0.123575)
(3.93906e-18 1.35392e-17 0.0398039)
(-5.16915e-17 6.11835e-17 1.96474)
(-2.20584e-17 1.20178e-16 1.93114)
(1.00862e-17 6.57349e-17 1.89646)
(6.90649e-17 4.90498e-17 1.86079)
(4.87421e-17 6.44873e-17 1.82421)
(2.36282e-17 8.43026e-17 1.78673)
(5.39445e-17 8.39352e-17 1.74833)
(4.26573e-17 9.7339e-17 1.70895)
(-3.81308e-18 1.2328e-16 1.66851)
(-4.03634e-17 1.38804e-16 1.62688)
(-7.96842e-17 1.50833e-16 1.5839)
(-9.53219e-17 1.54043e-16 1.53937)
(-1.00062e-16 1.55117e-16 1.49295)
(-9.76606e-17 1.58767e-16 1.44423)
(-6.25901e-17 1.57935e-16 1.39272)
(-2.00315e-17 1.53165e-16 1.33788)
(6.56914e-18 1.53299e-16 1.27904)
(-1.08908e-18 1.5968e-16 1.21539)
(-1.70976e-17 1.65724e-16 1.14599)
(-2.43821e-17 1.68375e-16 1.06975)
(-2.23649e-17 1.67194e-16 0.985579)
(-1.27936e-17 1.62517e-16 0.892479)
(-3.29847e-18 1.54407e-16 0.78928)
(9.12925e-18 1.41117e-16 0.675753)
(1.4569e-17 1.24643e-16 0.555503)
(1.4043e-17 1.05382e-16 0.43567)
(1.26298e-17 8.33162e-17 0.32262)
(1.06273e-17 5.88361e-17 0.219086)
(6.17557e-18 3.29771e-17 0.125227)
(3.21234e-18 1.43001e-17 0.0403369)
(-3.57376e-17 -9.25897e-18 1.9676)
(-7.28802e-17 -1.15173e-17 1.93409)
(-7.76495e-17 7.32265e-18 1.89947)
(-1.22054e-17 2.44373e-17 1.86387)
(2.84331e-17 1.24771e-18 1.82734)
(2.13239e-17 6.39545e-18 1.78992)
(-7.71403e-18 -1.12348e-17 1.75156)
(4.92474e-17 -3.48157e-17 1.71224)
(8.35125e-17 -4.54059e-17 1.67185)
(5.09705e-17 -4.78484e-17 1.63028)
(2.62475e-17 -5.20269e-17 1.58737)
(1.71025e-17 -5.27574e-17 1.54291)
(5.13172e-18 -5.39462e-17 1.49658)
(-1.32157e-17 -4.99989e-17 1.44796)
(-4.23604e-17 -4.6695e-17 1.39657)
(-4.77564e-17 -4.8764e-17 1.34187)
(-2.72221e-17 -5.55468e-17 1.28319)
(-1.72182e-17 -5.9931e-17 1.21973)
(-2.12271e-17 -6.02897e-17 1.15051)
(-2.23738e-17 -5.99982e-17 1.07447)
(-1.4923e-17 -6.01896e-17 0.990482)
(-1.08063e-17 -5.90185e-17 0.897511)
(-1.36904e-17 -5.57384e-17 0.794374)
(-1.32577e-17 -5.14609e-17 0.680744)
(-9.79078e-18 -4.58255e-17 0.560041)
(-6.34935e-18 -3.86354e-17 0.439427)
(-5.14031e-18 -3.05286e-17 0.325459)
(-4.24436e-18 -2.2526e-17 0.221025)
(-2.53238e-18 -1.45813e-17 0.126338)
(-4.84875e-19 -4.253e-18 0.0406954)
(-3.30745e-17 -2.531e-17 1.96902)
(-1.72746e-17 -7.46e-18 1.93556)
(6.60711e-17 2.77653e-17 1.90098)
(6.72013e-17 3.64974e-17 1.8654)
(3.15005e-17 4.22088e-17 1.82891)
(-2.1614e-18 3.98909e-17 1.79151)
(-2.77234e-18 5.95203e-17 1.75318)
(3.52516e-17 7.15627e-17 1.71388)
(3.55446e-17 6.22034e-17 1.67352)
(1.22243e-17 5.63558e-17 1.63198)
(-9.72788e-19 5.38757e-17 1.5891)
(4.18121e-18 5.13705e-17 1.54467)
(1.99868e-17 4.53451e-17 1.49839)
(3.09254e-17 4.09656e-17 1.44982)
(3.26788e-17 4.20365e-17 1.39849)
(3.59483e-17 4.48292e-17 1.34386)
(5.22809e-17 4.71086e-17 1.28526)
(6.46024e-17 4.90353e-17 1.22188)
(5.93546e-17 5.28404e-17 1.15277)
(3.42845e-17 5.77371e-17 1.07683)
(1.41861e-17 6.1084e-17 0.992925)
(7.85253e-18 6.20964e-17 0.90002)
(1.84759e-18 6.17076e-17 0.796918)
(-1.32281e-18 5.93133e-17 0.683241)
(-6.65013e-19 5.42045e-17 0.562316)
(2.1243e-18 4.66283e-17 0.441314)
(2.31516e-18 3.74558e-17 0.326885)
(1.22532e-18 2.73955e-17 0.222)
(4.74373e-19 1.73001e-17 0.126896)
(-4.36801e-21 5.09678e-18 0.0408756)
(3.84666e-17 -1.792e-17 1.96902)
(6.58967e-18 -2.58829e-18 1.93556)
(-1.19506e-17 -2.51968e-18 1.90098)
(1.18189e-17 -2.61754e-17 1.8654)
(3.77272e-17 -1.89684e-17 1.82891)
(6.84243e-17 -2.1527e-18 1.79151)
(7.37346e-17 2.54615e-17 1.75318)
(4.6842e-17 4.14613e-17 1.71388)
(1.80046e-17 2.98963e-17 1.67352)
(-6.6505e-18 2.83493e-17 1.63198)
(-2.13736e-17 3.1673e-17 1.5891)
(-4.68774e-17 3.36517e-17 1.54467)
(-6.87139e-17 3.19235e-17 1.49839)
(-5.43054e-17 3.19167e-17 1.44982)
(-4.65775e-17 3.27145e-17 1.39849)
(-4.2618e-17 3.32789e-17 1.34386)
(-2.71271e-17 3.38491e-17 1.28526)
(-1.07763e-17 3.36605e-17 1.22188)
(8.67001e-19 3.24818e-17 1.15277)
(-5.23984e-18 3.11032e-17 1.07683)
(-1.50894e-17 3.12075e-17 0.992925)
(-1.5221e-17 3.16908e-17 0.900021)
(-1.02092e-17 3.24611e-17 0.796918)
(-8.58437e-18 3.28024e-17 0.683241)
(-7.2034e-18 3.16975e-17 0.562316)
(-3.43243e-18 2.88493e-17 0.441314)
(-1.17844e-18 2.46111e-17 0.326885)
(-5.03353e-19 1.98436e-17 0.222)
(5.14104e-20 1.52439e-17 0.126896)
(-1.4465e-19 2.93925e-18 0.0408756)
(1.42302e-17 -4.68992e-17 1.9676)
(6.35913e-18 -4.66623e-17 1.93409)
(3.01701e-17 -5.48052e-18 1.89947)
(5.38892e-17 -1.48124e-17 1.86387)
(8.76607e-17 -8.3204e-18 1.82734)
(1.03961e-16 4.05887e-18 1.78992)
(9.98234e-17 8.77706e-18 1.75156)
(2.85758e-17 1.05815e-17 1.71224)
(-1.47781e-17 5.55712e-19 1.67185)
(5.80611e-18 -5.11001e-18 1.63028)
(4.17747e-18 -1.0695e-17 1.58737)
(-1.11684e-17 -2.1139e-17 1.54291)
(-8.90219e-18 -2.69964e-17 1.49658)
(9.74657e-18 -3.02809e-17 1.44796)
(1.48378e-17 -3.62857e-17 1.39657)
(9.90331e-18 -3.86121e-17 1.34187)
(8.00263e-18 -4.14032e-17 1.28319)
(-6.0297e-19 -4.415e-17 1.21973)
(-1.17674e-17 -4.76017e-17 1.15051)
(-1.2468e-17 -4.89032e-17 1.07447)
(-1.09086e-17 -4.80785e-17 0.990482)
(-8.58915e-18 -4.58633e-17 0.897511)
(-4.40707e-19 -4.17744e-17 0.794374)
(3.84249e-18 -3.63436e-17 0.680744)
(2.67889e-18 -3.04964e-17 0.560041)
(1.10115e-18 -2.43478e-17 0.439427)
(2.43579e-19 -1.79777e-17 0.325459)
(2.53571e-19 -1.113e-17 0.221025)
(-6.04596e-20 -3.54485e-18 0.126338)
(5.04241e-20 -3.96331e-18 0.0406954)
(3.46533e-17 2.41444e-17 1.96474)
(5.51941e-17 4.675e-17 1.93114)
(2.80474e-17 4.31073e-18 1.89646)
(9.2015e-18 2.7467e-17 1.86079)
(7.36725e-17 4.68729e-17 1.82421)
(1.09289e-16 3.80385e-17 1.78673)
(1.15514e-16 2.15995e-17 1.74833)
(6.16939e-17 -1.10216e-17 1.70895)
(-6.59575e-18 -2.95481e-17 1.66851)
(-2.06302e-17 -4.13252e-17 1.62688)
(-3.93754e-17 -4.84113e-17 1.5839)
(-6.81593e-17 -5.51904e-17 1.53937)
(-7.82906e-17 -5.82045e-17 1.49295)
(-7.03918e-17 -5.87293e-17 1.44423)
(-4.35341e-17 -5.49426e-17 1.39272)
(-2.75908e-17 -5.21178e-17 1.33788)
(-2.14e-17 -4.91305e-17 1.27904)
(-1.23616e-17 -4.3991e-17 1.21539)
(-6.13087e-18 -3.89816e-17 1.14599)
(1.97951e-18 -3.37373e-17 1.06975)
(1.79641e-18 -3.02006e-17 0.98558)
(-7.2723e-19 -2.62112e-17 0.89248)
(4.35495e-18 -2.05575e-17 0.78928)
(7.1175e-18 -1.52138e-17 0.675754)
(6.0433e-18 -1.10888e-17 0.555503)
(3.80339e-18 -8.02096e-18 0.435671)
(1.8982e-18 -5.6334e-18 0.32262)
(1.02174e-18 -3.45473e-18 0.219086)
(9.29109e-19 -7.59901e-19 0.125227)
(4.60257e-19 -1.52438e-18 0.040337)
(1.44338e-17 -3.36012e-19 1.96044)
(-2.66524e-17 -4.5564e-17 1.92672)
(3.71115e-17 -7.37497e-17 1.89193)
(1.09935e-16 1.0345e-18 1.85617)
(7.29394e-17 8.8654e-18 1.8195)
(3.97033e-17 -9.30158e-18 1.78194)
(1.50383e-17 -1.4599e-17 1.74346)
(-1.22313e-17 -2.9753e-17 1.704)
(-1.02278e-17 -3.32036e-17 1.66348)
(3.03698e-17 -3.26849e-17 1.62176)
(5.83119e-17 -3.39559e-17 1.57869)
(4.7466e-17 -4.02037e-17 1.53404)
(3.71971e-17 -4.20519e-17 1.48749)
(4.41655e-17 -3.80247e-17 1.4386)
(4.67634e-17 -3.58686e-17 1.3869)
(4.99301e-17 -3.46465e-17 1.33185)
(6.4655e-17 -2.95532e-17 1.27277)
(6.20145e-17 -3.08495e-17 1.20885)
(4.35144e-17 -3.57954e-17 1.13915)
(3.3989e-17 -3.66513e-17 1.06262)
(3.43268e-17 -3.31605e-17 0.978183)
(3.77127e-17 -2.75508e-17 0.884898)
(3.71016e-17 -2.21361e-17 0.781621)
(2.90887e-17 -1.82951e-17 0.668274)
(1.7855e-17 -1.52342e-17 0.548727)
(9.28466e-18 -1.15933e-17 0.430076)
(5.24517e-18 -7.22051e-18 0.318398)
(2.30191e-18 -2.93897e-18 0.216203)
(-2.67439e-19 5.80053e-19 0.123575)
(2.69917e-19 -7.08717e-19 0.039804)
(-8.38739e-18 1.5206e-17 1.95468)
(-3.71028e-17 1.09222e-17 1.9208)
(4.98158e-17 1.04849e-16 1.88587)
(1.10085e-16 1.11576e-16 1.84998)
(6.42573e-17 8.67241e-17 1.8132)
(7.33497e-17 1.02585e-16 1.77553)
(8.10296e-17 1.16896e-16 1.73695)
(2.57776e-17 1.07202e-16 1.69738)
(-3.4392e-17 8.75665e-17 1.65675)
(-4.68062e-17 8.33225e-17 1.61491)
(-2.92814e-17 8.48968e-17 1.57171)
(-9.73623e-18 8.53785e-17 1.5269)
(1.30143e-17 8.99028e-17 1.48016)
(2.44846e-17 9.00822e-17 1.43104)