/*--------------------------------*- C++ -*----------------------------------*\
| =========                 |                                                 |
| \\      /  F ield         | OpenFOAM: The Open Source CFD Toolbox           |
|  \\    /   O peration     | Version:  2306                                  |
|   \\  /    A nd           | Website:  www.openfoam.com                      |
|    \\/     M anipulation  |                                                 |
\*---------------------------------------------------------------------------*/
FoamFile
{
    version     2.0;
    format      ascii;
    arch        "LSB;label=32;scalar=64";
    class       volScalarField;
    location    "21771";
    object      p;
}
// * * * * * * * * * * * * * * * * * * * * * * * * * * * * * * * * * * * * * //

dimensions      [0 2 -2 0 0 0 0];

internalField   nonuniform List<scalar> 
100
(
3.00126e-18
5.21247e-18
2.79438e-18
-1.41641e-18
-5.02118e-18
-8.33643e-18
-1.1391e-17
-1.46762e-17
-1.82636e-17
-2.2399e-17
-2.73585e-17
-3.31221e-17
-3.97115e-17
-4.72935e-17
-5.79123e-17
-6.93683e-17
-8.16637e-17
-9.40187e-17
-1.06566e-16
-1.19728e-16
-1.34964e-16
-1.49927e-16
-1.67074e-16
-1.84303e-16
-2.02355e-16
-2.20734e-16
-2.40097e-16
-2.62935e-16
-2.8937e-16
-3.09294e-16
-3.33156e-16
-3.61529e-16
-3.86568e-16
-4.12463e-16
-4.43789e-16
-4.74951e-16
-5.06282e-16
-5.31977e-16
-5.61851e-16
-5.9907e-16
-6.36046e-16
-6.71418e-16
-7.06751e-16
-7.44584e-16
-7.80238e-16
-8.10729e-16
-8.4288e-16
-8.77317e-16
-9.14131e-16
-9.41036e-16
-9.85126e-16
-1.01561e-15
-1.04886e-15
-1.0867e-15
-1.1284e-15
-1.16396e-15
-1.19542e-15
-1.21996e-15
-1.24277e-15
-1.25632e-15
-1.27891e-15
-1.31622e-15
-1.34412e-15
-1.34902e-15
-1.37069e-15
-1.39675e-15
-1.41332e-15
-1.43986e-15
-1.46421e-15
-1.48839e-15
-1.49425e-15
-1.49708e-15
-1.53195e-15
-1.54571e-15
-1.57616e-15
-1.59479e-15
-1.61261e-15
-1.60595e-15
-1.6074e-15
-1.60833e-15
-1.60794e-15
-1.60126e-15
-1.59239e-15
-1.61534e-15
-1.61574e-15
-1.58788e-15
-1.58473e-15
-1.595e-15
-1.6012e-15
-1.60887e-15
-1.62508e-15
-1.62721e-15
-1.61635e-15
-1.6055e-15
-1.61458e-15
-1.62211e-15
-1.62389e-15
-1.62127e-15
-1.61697e-15
-1.61948e-15
)
;

boundaryField
{
    inlet
    {
        type            cyclic;
    }
    outlet
    {
        type            cyclic;
    }
    channelCenter
    {
        type            symmetryPlane;
    }
    lowerWall
    {
        type            zeroGradient;
    }
    frontAndBack
    {
        type            empty;
    }
}


// ************************************************************************* //
