/*--------------------------------*- C++ -*----------------------------------*\
| =========                 |                                                 |
| \\      /  F ield         | OpenFOAM: The Open Source CFD Toolbox           |
|  \\    /   O peration     | Version:  2306                                  |
|   \\  /    A nd           | Website:  www.openfoam.com                      |
|    \\/     M anipulation  |                                                 |
\*---------------------------------------------------------------------------*/
FoamFile
{
    version     2.0;
    format      ascii;
    arch        "LSB;label=32;scalar=64";
    class       volVectorField;
    location    "21771";
    object      U;
}
// * * * * * * * * * * * * * * * * * * * * * * * * * * * * * * * * * * * * * //

dimensions      [0 1 -1 0 0 0 0];

internalField   nonuniform List<vector> 
100
(
(0.0300236 0 -3.05519e-17)
(0.0905537 0 6.55704e-17)
(0.152242 0 -5.0948e-18)
(0.214969 0 -5.05176e-18)
(0.278366 0 -9.16593e-18)
(0.341518 0 -1.39958e-17)
(0.402578 0 -2.02888e-17)
(0.458956 0 -2.80463e-17)
(0.508657 0 -3.41976e-17)
(0.551329 0 -3.87525e-17)
(0.587833 0 -4.02355e-17)
(0.619343 0 -3.99065e-17)
(0.646905 0 -3.86302e-17)
(0.671333 0 -3.17561e-17)
(0.693246 0 -2.36448e-17)
(0.713109 0 -2.28488e-17)
(0.731277 0 -2.67123e-17)
(0.748026 0 -3.14733e-17)
(0.763572 0 -3.7335e-17)
(0.778086 0 -3.44512e-17)
(0.791708 0 -2.67478e-17)
(0.804552 0 -2.59986e-17)
(0.816711 0 -2.28368e-17)
(0.828265 0 -1.87392e-17)
(0.839279 0 -1.81713e-17)
(0.84981 0 -1.72532e-17)
(0.859907 0 -1.04238e-17)
(0.869611 0 -3.98677e-18)
(0.878958 0 -6.44398e-18)
(0.88798 0 -8.31278e-18)
(0.896705 0 3.92009e-19)
(0.905158 0 5.9268e-18)
(0.91336 0 4.18567e-18)
(0.921331 0 1.07689e-17)
(0.929088 0 1.40128e-17)
(0.936647 0 9.18956e-18)
(0.944022 0 6.77019e-18)
(0.951225 0 5.43468e-18)
(0.958268 0 1.52761e-17)
(0.965162 0 2.76913e-17)
(0.971916 0 2.51382e-17)
(0.978538 0 2.40376e-17)
(0.985038 0 1.8428e-17)
(0.991421 0 1.00101e-17)
(0.997695 0 1.67365e-18)
(1.00387 0 -3.70624e-18)
(1.00994 0 6.5767e-18)
(1.01592 0 1.17796e-17)
(1.02181 0 1.52353e-17)
(1.02762 0 1.6048e-17)
(1.03335 0 1.68418e-17)
(1.039 0 2.26168e-17)
(1.04459 0 2.87581e-17)
(1.0501 0 3.57089e-17)
(1.05555 0 3.02912e-17)
(1.06093 0 2.26933e-17)
(1.06625 0 1.12886e-17)
(1.07151 0 -7.37537e-18)
(1.07671 0 -2.38006e-17)
(1.08186 0 -1.26456e-17)
(1.08695 0 9.99201e-18)
(1.09199 0 5.63735e-18)
(1.09698 0 -3.01139e-18)
(1.10192 0 -7.52343e-18)
(1.1068 0 9.12888e-18)
(1.11163 0 3.29388e-17)
(1.11641 0 2.51874e-17)
(1.12114 0 2.29477e-17)
(1.12582 0 3.04905e-17)
(1.13044 0 2.21735e-17)
(1.13501 0 2.2085e-17)
(1.13952 0 4.70713e-17)
(1.14398 0 6.085e-17)
(1.14838 0 6.93595e-17)
(1.15271 0 7.89846e-17)
(1.15699 0 7.38896e-17)
(1.16119 0 4.73546e-17)
(1.16532 0 2.54129e-17)
(1.16938 0 2.98344e-17)
(1.17335 0 2.69621e-17)
(1.17724 0 2.08356e-17)
(1.18104 0 1.67803e-17)
(1.18473 0 4.30667e-17)
(1.18833 0 4.57791e-17)
(1.19181 0 1.29132e-17)
(1.19517 0 2.67539e-17)
(1.1984 0 5.91346e-17)
(1.20149 0 8.64997e-17)
(1.20443 0 1.04799e-16)
(1.20721 0 1.05722e-16)
(1.20981 0 8.65545e-17)
(1.21224 0 4.84145e-17)
(1.21446 0 2.35479e-17)
(1.21648 0 2.35663e-17)
(1.21827 0 3.39875e-17)
(1.21982 0 2.76453e-17)
(1.22112 0 1.04112e-17)
(1.22215 0 -4.22306e-18)
(1.22288 0 -1.14092e-17)
(1.22328 0 -1.30905e-18)
)
;

boundaryField
{
    inlet
    {
        type            cyclic;
    }
    outlet
    {
        type            cyclic;
    }
    channelCenter
    {
        type            symmetryPlane;
    }
    lowerWall
    {
        type            noSlip;
    }
    frontAndBack
    {
        type            empty;
    }
}


// ************************************************************************* //
