/*--------------------------------*- C++ -*----------------------------------*\
| =========                 |                                                 |
| \\      /  F ield         | OpenFOAM: The Open Source CFD Toolbox           |
|  \\    /   O peration     | Version:  2306                                  |
|   \\  /    A nd           | Website:  www.openfoam.com                      |
|    \\/     M anipulation  |                                                 |
\*---------------------------------------------------------------------------*/
FoamFile
{
    version     2.0;
    format      ascii;
    arch        "LSB;label=32;scalar=64";
    class       volScalarField;
    location    "4320";
    object      epsilon;
}
// * * * * * * * * * * * * * * * * * * * * * * * * * * * * * * * * * * * * * //

dimensions      [0 2 -3 0 0 0 0];

internalField   nonuniform List<scalar> 
2800
(
0.00570239
0.00531129
0.00497414
0.0046923
0.00446095
0.0042753
0.00413138
0.00402607
0.0039571
0.00392298
0.00392298
0.0039571
0.00402607
0.00413138
0.0042753
0.00446095
0.0046923
0.00497414
0.00531129
0.00570239
0.00530948
0.00485105
0.00447474
0.00416513
0.00391309
0.00371205
0.00355691
0.0034438
0.00336993
0.00333344
0.00333344
0.00336993
0.0034438
0.00355691
0.00371205
0.00391309
0.00416513
0.00447474
0.00485105
0.00530948
0.00497227
0.00447393
0.00406774
0.00373788
0.00347222
0.00326199
0.00310075
0.00298373
0.00290753
0.00286997
0.00286997
0.00290753
0.00298373
0.00310075
0.00326199
0.00347222
0.00373788
0.00406774
0.00447393
0.00497227
0.00469067
0.00416411
0.00373747
0.00339378
0.00311938
0.00290394
0.00273975
0.00262118
0.00254424
0.0025064
0.0025064
0.00254424
0.00262118
0.00273975
0.00290394
0.00311938
0.00339378
0.00373747
0.00416411
0.00469067
0.00445958
0.0039121
0.00347164
0.00311915
0.00283966
0.00262167
0.00245652
0.00233782
0.00226107
0.00222339
0.00222339
0.00226107
0.00233782
0.00245652
0.00262167
0.00283966
0.00311915
0.00347164
0.0039121
0.00445958
0.00427419
0.00371115
0.00326139
0.00290359
0.00262153
0.00240276
0.00223783
0.00211979
0.00204371
0.00200643
0.00200643
0.00204371
0.00211979
0.00223783
0.00240276
0.00262153
0.00290359
0.00326139
0.00371115
0.00427419
0.00413047
0.00355613
0.00310017
0.00273937
0.00245631
0.00223775
0.00207366
0.00195662
0.00188138
0.00184458
0.00184458
0.00188138
0.00195662
0.00207366
0.00223775
0.00245631
0.00273937
0.00310017
0.00355613
0.00413047
0.00402531
0.00344313
0.00298319
0.00262079
0.00233757
0.00211966
0.00195657
0.00184055
0.00176612
0.00172975
0.00172975
0.00176612
0.00184055
0.00195657
0.00211966
0.00233757
0.00262079
0.00298319
0.00344313
0.00402531
0.00395644
0.00336933
0.00290704
0.00254387
0.00226081
0.00204354
0.00188129
0.00176608
0.00169227
0.00165624
0.00165624
0.00169227
0.00176608
0.00188129
0.00204354
0.00226081
0.00254387
0.00290704
0.00336933
0.00395644
0.00392238
0.00333288
0.0028695
0.00250604
0.00222313
0.00200626
0.00184448
0.0017297
0.00165622
0.00162037
0.00162037
0.00165622
0.0017297
0.00184448
0.00200626
0.00222313
0.00250604
0.0028695
0.00333288
0.00392238
0.00392238
0.00333288
0.0028695
0.00250604
0.00222313
0.00200626
0.00184448
0.0017297
0.00165622
0.00162037
0.00162037
0.00165622
0.0017297
0.00184448
0.00200626
0.00222313
0.00250604
0.0028695
0.00333288
0.00392238
0.00395644
0.00336933
0.00290704
0.00254387
0.00226081
0.00204354
0.00188129
0.00176608
0.00169227
0.00165624
0.00165624
0.00169227
0.00176608
0.00188129
0.00204354
0.00226081
0.00254387
0.00290704
0.00336933
0.00395644
0.00402531
0.00344313
0.00298319
0.00262079
0.00233757
0.00211966
0.00195657
0.00184055
0.00176612
0.00172975
0.00172975
0.00176612
0.00184055
0.00195657
0.00211966
0.00233757
0.00262079
0.00298319
0.00344313
0.00402531
0.00413047
0.00355613
0.00310017
0.00273937
0.00245631
0.00223775
0.00207366
0.00195662
0.00188138
0.00184458
0.00184458
0.00188138
0.00195662
0.00207366
0.00223775
0.00245631
0.00273937
0.00310017
0.00355613
0.00413047
0.00427419
0.00371115
0.00326139
0.00290359
0.00262153
0.00240276
0.00223783
0.00211979
0.00204371
0.00200643
0.00200643
0.00204371
0.00211979
0.00223783
0.00240276
0.00262153
0.00290359
0.00326139
0.00371115
0.00427419
0.00445958
0.0039121
0.00347164
0.00311915
0.00283966
0.00262167
0.00245652
0.00233782
0.00226107
0.00222339
0.00222339
0.00226107
0.00233782
0.00245652
0.00262167
0.00283966
0.00311915
0.00347164
0.0039121
0.00445958
0.00469067
0.00416411
0.00373747
0.00339378
0.00311938
0.00290394
0.00273975
0.00262118
0.00254424
0.0025064
0.0025064
0.00254424
0.00262118
0.00273975
0.00290394
0.00311938
0.00339378
0.00373747
0.00416411
0.00469067
0.00497227
0.00447393
0.00406774
0.00373788
0.00347222
0.00326199
0.00310075
0.00298373
0.00290753
0.00286997
0.00286997
0.00290753
0.00298373
0.00310075
0.00326199
0.00347222
0.00373788
0.00406774
0.00447393
0.00497227
0.00530948
0.00485105
0.00447474
0.00416513
0.00391309
0.00371205
0.00355691
0.0034438
0.00336993
0.00333344
0.00333344
0.00336993
0.0034438
0.00355691
0.00371205
0.00391309
0.00416513
0.00447474
0.00485105
0.00530948
0.00570239
0.00531129
0.00497414
0.0046923
0.00446095
0.0042753
0.00413138
0.00402607
0.0039571
0.00392298
0.00392298
0.0039571
0.00402607
0.00413138
0.0042753
0.00446095
0.0046923
0.00497414
0.00531129
0.00570239
0.00639672
0.00747353
0.00869475
0.0100749
0.0116321
0.0133881
0.0153687
0.017604
0.0201278
0.0229778
0.0261942
0.0298179
0.033885
0.0384189
0.043413
0.0488032
0.05442
0.0599173
0.06468
0.0677633
0.0680664
0.0650985
0.0602108
0.0543177
0.0482795
0.0426062
0.0374298
0.032528
0.0272639
0.0196985
0.00599252
0.00701977
0.00818432
0.00950165
0.0109894
0.0126686
0.0145643
0.0167057
0.0191261
0.021863
0.0249574
0.0284519
0.032387
0.0367939
0.0416809
0.0470081
0.0526461
0.0583082
0.0634567
0.0672138
0.0684307
0.0662997
0.0616896
0.0558152
0.0496098
0.0437049
0.0383161
0.0332571
0.027882
0.0201851
0.00566499
0.00664616
0.00776214
0.00902644
0.0104558
0.0120705
0.0138947
0.0159569
0.0182897
0.0209303
0.0239198
0.0273017
0.0311193
0.0354095
0.040191
0.0454423
0.0510647
0.0568188
0.0622315
0.0664908
0.0684424
0.067056
0.0627471
0.0569454
0.0506242
0.0445277
0.0389552
0.0337609
0.0282978
0.020512
0.00539383
0.00633707
0.00741216
0.00863176
0.0100118
0.0115718
0.0133351
0.0153294
0.0175866
0.0201435
0.0230408
0.0263229
0.0300348
0.0342175
0.0388974
0.0440674
0.0496521
0.0554498
0.0610408
0.0656728
0.068208
0.0674661
0.0634625
0.0577718
0.0513798
0.0451315
0.039405
0.0340973
0.0285662
0.0207238
0.00517142
0.00608372
0.00712506
0.00830759
0.00964659
0.0111609
0.0128731
0.0148101
0.0170032
0.0194886
0.0223069
0.0255027
0.0291222
0.0332095
0.0377968
0.0428876
0.048425
0.0542366
0.059946
0.0648523
0.0678443
0.0676434
0.0639289
0.0583678
0.0519383
0.0455719
0.0397187
0.034317
0.0287331
0.0208558
0.00499267
0.00588012
0.00689432
0.00804702
0.009353
0.0108305
0.0125015
0.0143924
0.0165337
0.0189612
0.021715
0.0248398
0.0283827
0.0323897
0.0368972
0.0419167
0.0474052
0.0532134
0.0589994
0.0641058
0.0674506
0.0676931
0.0642391
0.0588107
0.0523661
0.0459091
0.0399527
0.0344732
0.028847
0.0209459
0.0048538
0.00572195
0.00671516
0.00784488
0.00912556
0.0105751
0.0122151
0.0140714
0.0161744
0.0185594
0.0212665
0.0243405
0.0278292
0.0317799
0.0362325
0.0412043
0.0466627
0.052476
0.0583298
0.0636042
0.0672501
0.0678986
0.0647732
0.0594388
0.0529672
0.0464141
0.0403503
0.0347865
0.0291048
0.0211491
0.00475199
0.00560602
0.00658393
0.00769702
0.00895954
0.0103891
0.0120071
0.0138391
0.0159153
0.0182707
0.0209454
0.023984
0.0274348
0.0313463
0.0357601
0.0406978
0.0461343
0.0519505
0.0578525
0.0632491
0.0671199
0.068084
0.0652433
0.0599825
0.0534915
0.046861
0.0407091
0.0350748
0.0293447
0.0213381
0.00468523
0.00553
0.00649794
0.00760026
0.00885106
0.0102678
0.0118717
0.0136882
0.0157472
0.0180836
0.0207371
0.0237526
0.0271784
0.0310635
0.035451
0.0403649
0.0457851
0.0516006
0.0575309
0.0630038
0.0670188
0.0681904
0.0655432
0.0603368
0.053837
0.0471564
0.0409458
0.0352641
0.0295017
0.0214617
0.00465217
0.00549236
0.0064554
0.00755242
0.00879748
0.010208
0.011805
0.0136139
0.0156644
0.0179913
0.0206344
0.0236383
0.0270516
0.0309233
0.0352974
0.0401991
0.0456106
0.0514249
0.0573682
0.0628778
0.0669631
0.0682372
0.0656876
0.0605099
0.054007
0.047302
0.0410621
0.0353568
0.0295783
0.0215221
0.00465217
0.00549236
0.0064554
0.00755242
0.00879748
0.010208
0.011805
0.0136139
0.0156644
0.0179913
0.0206344
0.0236383
0.0270516
0.0309233
0.0352974
0.0401991
0.0456106
0.0514249
0.0573682
0.0628778
0.0669631
0.0682372
0.0656876
0.0605099
0.054007
0.047302
0.0410621
0.0353568
0.0295783
0.0215221
0.00468523
0.00553
0.00649794
0.00760026
0.00885106
0.0102678
0.0118717
0.0136882
0.0157472
0.0180836
0.0207371
0.0237526
0.0271784
0.0310635
0.035451
0.0403649
0.0457851
0.0516006
0.0575309
0.0630038
0.0670188
0.0681904
0.0655432
0.0603368
0.053837
0.0471564
0.0409458
0.0352641
0.0295017
0.0214617
0.00475199
0.00560602
0.00658393
0.00769702
0.00895954
0.0103891
0.0120071
0.0138391
0.0159153
0.0182707
0.0209454
0.023984
0.0274348
0.0313463
0.0357601
0.0406978
0.0461343
0.0519505
0.0578525
0.0632491
0.0671199
0.068084
0.0652433
0.0599825
0.0534915
0.046861
0.0407091
0.0350748
0.0293447
0.0213381
0.0048538
0.00572195
0.00671516
0.00784488
0.00912556
0.0105751
0.0122151
0.0140714
0.0161744
0.0185594
0.0212665
0.0243405
0.0278292
0.0317799
0.0362325
0.0412043
0.0466627
0.052476
0.0583298
0.0636042
0.0672501
0.0678986
0.0647732
0.0594388
0.0529672
0.0464141
0.0403503
0.0347865
0.0291048
0.0211491
0.00499267
0.00588012
0.00689432
0.00804702
0.009353
0.0108305
0.0125015
0.0143924
0.0165337
0.0189612
0.021715
0.0248398
0.0283827
0.0323897
0.0368972
0.0419167
0.0474052
0.0532134
0.0589994
0.0641058
0.0674506
0.0676931
0.0642391
0.0588107
0.0523661
0.0459091
0.0399527
0.0344732
0.028847
0.0209459
0.00517142
0.00608372
0.00712506
0.00830759
0.00964659
0.0111609
0.0128731
0.0148101
0.0170032
0.0194886
0.0223069
0.0255027
0.0291222
0.0332095
0.0377968
0.0428876
0.048425
0.0542366
0.059946
0.0648523
0.0678443
0.0676434
0.0639289
0.0583678
0.0519383
0.0455719
0.0397187
0.034317
0.0287331
0.0208558
0.00539383
0.00633707
0.00741216
0.00863176
0.0100118
0.0115718
0.0133351
0.0153294
0.0175866
0.0201435
0.0230408
0.0263229
0.0300348
0.0342175
0.0388974
0.0440674
0.0496521
0.0554498
0.0610408
0.0656728
0.068208
0.0674661
0.0634625
0.0577718
0.0513798
0.0451315
0.039405
0.0340973
0.0285662
0.0207238
0.00566499
0.00664616
0.00776214
0.00902644
0.0104558
0.0120705
0.0138947
0.0159569
0.0182897
0.0209303
0.0239198
0.0273017
0.0311193
0.0354095
0.040191
0.0454423
0.0510647
0.0568188
0.0622315
0.0664908
0.0684424
0.067056
0.0627471
0.0569453
0.0506242
0.0445277
0.0389552
0.0337609
0.0282978
0.020512
0.00599252
0.00701977
0.00818432
0.00950165
0.0109894
0.0126686
0.0145643
0.0167057
0.0191261
0.021863
0.0249574
0.0284519
0.032387
0.0367939
0.0416809
0.0470081
0.0526461
0.0583082
0.0634567
0.0672138
0.0684307
0.0662997
0.0616896
0.0558152
0.0496098
0.0437049
0.0383161
0.0332571
0.027882
0.0201851
0.00639672
0.00747353
0.00869475
0.0100749
0.0116321
0.0133881
0.0153687
0.017604
0.0201278
0.0229777
0.0261942
0.0298179
0.033885
0.0384189
0.043413
0.0488032
0.05442
0.0599173
0.06468
0.0677633
0.0680664
0.0650985
0.0602108
0.0543177
0.0482795
0.0426062
0.0374298
0.032528
0.0272639
0.0196985
0.00640309
0.00748025
0.00870265
0.0100843
0.0116431
0.0134007
0.0153831
0.0176201
0.0201457
0.0229975
0.0262161
0.029842
0.0339119
0.038449
0.0434472
0.0488423
0.0544653
0.05997
0.0647413
0.0678341
0.0681462
0.0651845
0.0602981
0.0544029
0.0483602
0.0426814
0.0374991
0.0325911
0.0273196
0.0197411
0.00599518
0.00702323
0.00818849
0.00950668
0.0109954
0.0126756
0.0145725
0.0167151
0.0191369
0.0218756
0.024972
0.0284688
0.0324067
0.0368168
0.0417072
0.0470378
0.0526788
0.0583426
0.0634905
0.0672432
0.0684518
0.0663113
0.0616965
0.0558197
0.0496139
0.0437093
0.0383209
0.0332619
0.0278861
0.0201875
0.00566707
0.00664857
0.00776504
0.00903002
0.0104602
0.012076
0.0139014
0.0159651
0.0182997
0.0209423
0.023934
0.0273186
0.0311391
0.0354325
0.0402171
0.0454714
0.0510961
0.0568508
0.0622617
0.0665151
0.0684563
0.0670582
0.0627434
0.0569391
0.0506183
0.0445236
0.038953
0.03376
0.0282974
0.0205114
0.00539555
0.00633894
0.00741437
0.00863452
0.0100153
0.0115762
0.0133407
0.0153364
0.0175953
0.020154
0.0230535
0.026338
0.0300525
0.034238
0.0389208
0.0440934
0.0496801
0.0554785
0.061068
0.0656948
0.0682208
0.0674677
0.0634581
0.0577645
0.051373
0.0451266
0.0394022
0.0340961
0.0285657
0.0207233
0.00517286
0.00608523
0.00712681
0.00830975
0.00964933
0.0111644
0.0128775
0.0148156
0.0170101
0.0194971
0.0223171
0.0255148
0.0291366
0.0332263
0.037816
0.0429091
0.0484483
0.0542607
0.0599691
0.0648716
0.067856
0.0676455
0.0639253
0.0583613
0.0519319
0.0455672
0.039716
0.0343158
0.0287327
0.0208555
0.00499389
0.00588136
0.0068957
0.00804867
0.00935506
0.0108331
0.0125048
0.0143965
0.0165388
0.0189674
0.0217226
0.0248488
0.0283934
0.0324022
0.0369115
0.0419329
0.0474231
0.0532321
0.0590176
0.0641213
0.0674602
0.0676949
0.0642357
0.0588044
0.0523596
0.0459039
0.0399491
0.034471
0.0288456
0.0209448
0.00485486
0.00572298
0.00671624
0.00784613
0.00912709
0.010577
0.0122174
0.0140743
0.0161781
0.0185639
0.0212719
0.0243469
0.0278367
0.0317887
0.0362426
0.0412155
0.0466749
0.0524887
0.0583419
0.0636139
0.067255
0.0678965
0.0647645
0.0594281
0.0529566
0.046405
0.0403429
0.0347806
0.0290999
0.0211453
0.00475294
0.00560688
0.00658479
0.00769797
0.00896065
0.0103905
0.0120088
0.0138413
0.015918
0.0182739
0.0209492
0.0239886
0.0274402
0.0313525
0.0357673
0.0407058
0.0461431
0.0519598
0.0578615
0.0632567
0.0671244
0.0680838
0.0652385
0.059976
0.053485
0.0468554
0.0407046
0.0350713
0.0293419
0.021336
0.00468609
0.00553074
0.00649865
0.00760099
0.00885189
0.0102688
0.011873
0.0136898
0.0157491
0.0180859
0.0207399
0.0237559
0.0271823
0.031068
0.0354561
0.0403707
0.0457914
0.0516074
0.0575376
0.0630098
0.0670229
0.0681914
0.0655411
0.0603335
0.0538335
0.0471534
0.0409435
0.0352624
0.0295004
0.0214609
0.00465299
0.00549305
0.00645602
0.00755304
0.00879816
0.0102088
0.011806
0.0136151
0.0156659
0.0179931
0.0206366
0.0236409
0.0270546
0.0309268
0.0353014
0.0402037
0.0456156
0.0514303
0.0573737
0.0628828
0.0669669
0.0682388
0.0656868
0.0605082
0.0540051
0.0473004
0.041061
0.035356
0.0295778
0.0215219
0.00465299
0.00549305
0.00645602
0.00755304
0.00879816
0.0102088
0.011806
0.0136151
0.0156659
0.0179931
0.0206366
0.0236409
0.0270546
0.0309268
0.0353014
0.0402037
0.0456156
0.0514303
0.0573737
0.0628828
0.0669669
0.0682388
0.0656868
0.0605082
0.0540051
0.0473004
0.041061
0.035356
0.0295778
0.0215219
0.00468609
0.00553074
0.00649865
0.00760099
0.00885189
0.0102688
0.011873
0.0136898
0.0157491
0.0180859
0.0207399
0.0237559
0.0271823
0.031068
0.0354561
0.0403707
0.0457914
0.0516074
0.0575376
0.0630098
0.0670229
0.0681914
0.0655411
0.0603335
0.0538335
0.0471534
0.0409435
0.0352624
0.0295004
0.0214609
0.00475294
0.00560688
0.00658479
0.00769797
0.00896065
0.0103905
0.0120088
0.0138413
0.015918
0.0182739
0.0209492
0.0239886
0.0274402
0.0313525
0.0357673
0.0407058
0.0461431
0.0519598
0.0578615
0.0632567
0.0671244
0.0680838
0.0652385
0.059976
0.053485
0.0468554
0.0407046
0.0350713
0.0293419
0.021336
0.00485486
0.00572298
0.00671624
0.00784613
0.00912709
0.010577
0.0122174
0.0140743
0.0161781
0.0185639
0.0212719
0.0243469
0.0278367
0.0317887
0.0362426
0.0412155
0.0466749
0.0524887
0.0583419
0.0636139
0.067255
0.0678965
0.0647645
0.0594281
0.0529566
0.046405
0.0403429
0.0347806
0.0290999
0.0211453
0.00499389
0.00588136
0.0068957
0.00804867
0.00935506
0.0108331
0.0125048
0.0143965
0.0165388
0.0189674
0.0217226
0.0248488
0.0283934
0.0324022
0.0369115
0.0419329
0.0474231
0.0532321
0.0590176
0.0641213
0.0674602
0.0676949
0.0642357
0.0588044
0.0523596
0.0459039
0.0399491
0.034471
0.0288456
0.0209448
0.00517286
0.00608523
0.00712681
0.00830975
0.00964933
0.0111644
0.0128775
0.0148156
0.0170101
0.0194971
0.0223171
0.0255148
0.0291366
0.0332263
0.037816
0.0429091
0.0484483
0.0542607
0.0599691
0.0648716
0.067856
0.0676455
0.0639253
0.0583613
0.0519319
0.0455672
0.039716
0.0343158
0.0287327
0.0208555
0.00539555
0.00633894
0.00741437
0.00863452
0.0100153
0.0115762
0.0133407
0.0153364
0.0175953
0.020154
0.0230535
0.026338
0.0300525
0.034238
0.0389208
0.0440934
0.0496801
0.0554785
0.061068
0.0656948
0.0682208
0.0674677
0.0634581
0.0577645
0.051373
0.0451266
0.0394022
0.0340961
0.0285657
0.0207233
0.00566707
0.00664857
0.00776504
0.00903002
0.0104602
0.012076
0.0139015
0.0159651
0.0182997
0.0209423
0.023934
0.0273186
0.0311391
0.0354325
0.0402171
0.0454714
0.0510961
0.0568508
0.0622617
0.0665151
0.0684563
0.0670582
0.0627434
0.0569391
0.0506183
0.0445236
0.038953
0.03376
0.0282974
0.0205114
0.00599518
0.00702323
0.00818849
0.00950668
0.0109954
0.0126756
0.0145725
0.0167151
0.0191369
0.0218756
0.024972
0.0284688
0.0324067
0.0368168
0.0417072
0.0470378
0.0526788
0.0583426
0.0634905
0.0672432
0.0684518
0.0663113
0.0616965
0.0558197
0.0496139
0.0437093
0.0383209
0.0332619
0.0278861
0.0201875
0.00640309
0.00748025
0.00870265
0.0100843
0.0116431
0.0134007
0.0153831
0.0176201
0.0201457
0.0229975
0.0262161
0.029842
0.0339119
0.038449
0.0434472
0.0488423
0.0544653
0.05997
0.0647413
0.0678341
0.0681462
0.0651845
0.0602981
0.0544029
0.0483602
0.0426814
0.0374991
0.0325911
0.0273196
0.0197411
0.00639672
0.00747353
0.00869475
0.0100749
0.0116321
0.0133881
0.0153687
0.017604
0.0201278
0.0229778
0.0261942
0.0298179
0.033885
0.0384189
0.043413
0.0488032
0.05442
0.0599173
0.06468
0.0677633
0.0680664
0.0650985
0.0602108
0.0543177
0.0482795
0.0426062
0.0374298
0.032528
0.0272639
0.0196985
0.00599252
0.00701977
0.00818432
0.00950165
0.0109894
0.0126686
0.0145643
0.0167057
0.0191261
0.021863
0.0249574
0.0284519
0.032387
0.0367939
0.0416809
0.0470081
0.0526461
0.0583082
0.0634567
0.0672138
0.0684307
0.0662997
0.0616896
0.0558152
0.0496098
0.0437049
0.0383161
0.0332571
0.027882
0.0201851
0.00566499
0.00664616
0.00776214
0.00902644
0.0104558
0.0120705
0.0138947
0.0159569
0.0182897
0.0209303
0.0239198
0.0273017
0.0311193
0.0354095
0.040191
0.0454423
0.0510647
0.0568188
0.0622315
0.0664908
0.0684424
0.067056
0.0627471
0.0569454
0.0506242
0.0445277
0.0389552
0.0337609
0.0282978
0.020512
0.00539383
0.00633707
0.00741216
0.00863176
0.0100118
0.0115718
0.0133351
0.0153294
0.0175866
0.0201435
0.0230408
0.0263229
0.0300348
0.0342175
0.0388974
0.0440674
0.0496521
0.0554498
0.0610408
0.0656728
0.068208
0.0674661
0.0634625
0.0577718
0.0513798
0.0451315
0.039405
0.0340973
0.0285662
0.0207238
0.00517142
0.00608372
0.00712506
0.00830759
0.00964659
0.0111609
0.0128731
0.0148101
0.0170032
0.0194886
0.0223069
0.0255027
0.0291222
0.0332095
0.0377968
0.0428876
0.048425
0.0542366
0.059946
0.0648523
0.0678443
0.0676434
0.0639289
0.0583678
0.0519383
0.0455719
0.0397187
0.034317
0.0287331
0.0208558
0.00499267
0.00588012
0.00689432
0.00804702
0.009353
0.0108305
0.0125015
0.0143924
0.0165337
0.0189612
0.021715
0.0248398
0.0283827
0.0323897
0.0368972
0.0419167
0.0474052
0.0532134
0.0589994
0.0641058
0.0674506
0.0676931
0.0642391
0.0588107
0.0523661
0.0459091
0.0399527
0.0344732
0.028847
0.0209459
0.0048538
0.00572196
0.00671516
0.00784488
0.00912556
0.0105751
0.0122151
0.0140714
0.0161744
0.0185594
0.0212665
0.0243405
0.0278292
0.03178
0.0362325
0.0412043
0.0466627
0.052476
0.0583298
0.0636042
0.0672501
0.0678987
0.0647732
0.0594388
0.0529672
0.0464141
0.0403503
0.0347865
0.0291048
0.0211491
0.00475199
0.00560602
0.00658393
0.00769702
0.00895954
0.0103891
0.0120071
0.0138391
0.0159153
0.0182707
0.0209454
0.023984
0.0274348
0.0313463
0.0357601
0.0406978
0.0461343
0.0519505
0.0578525
0.0632491
0.0671199
0.068084
0.0652433
0.0599825
0.0534915
0.046861
0.0407091
0.0350748
0.0293447
0.0213381
0.00468523
0.00553
0.00649795
0.00760026
0.00885106
0.0102678
0.0118717
0.0136882
0.0157472
0.0180836
0.0207371
0.0237526
0.0271784
0.0310635
0.035451
0.0403649
0.0457851
0.0516006
0.0575309
0.0630038
0.0670188
0.0681904
0.0655432
0.0603368
0.053837
0.0471564
0.0409458
0.0352641
0.0295017
0.0214617
0.00465217
0.00549236
0.0064554
0.00755242
0.00879748
0.010208
0.011805
0.0136139
0.0156644
0.0179913
0.0206344
0.0236383
0.0270516
0.0309233
0.0352974
0.0401991
0.0456106
0.0514249
0.0573682
0.0628778
0.0669631
0.0682372
0.0656876
0.0605099
0.054007
0.047302
0.0410621
0.0353568
0.0295783
0.0215221
0.00465217
0.00549236
0.0064554
0.00755242
0.00879748
0.010208
0.011805
0.0136139
0.0156644
0.0179913
0.0206344
0.0236383
0.0270516
0.0309233
0.0352974
0.0401991
0.0456106
0.0514249
0.0573682
0.0628778
0.0669631
0.0682372
0.0656876
0.0605099
0.054007
0.047302
0.0410621
0.0353568
0.0295783
0.0215221
0.00468523
0.00553
0.00649795
0.00760026
0.00885106
0.0102678
0.0118717
0.0136882
0.0157472
0.0180836
0.0207371
0.0237526
0.0271784
0.0310635
0.035451
0.0403649
0.0457851
0.0516006
0.0575309
0.0630038
0.0670188
0.0681904
0.0655432
0.0603368
0.053837
0.0471564
0.0409458
0.0352641
0.0295017
0.0214617
0.00475199
0.00560602
0.00658393
0.00769703
0.00895954
0.0103891
0.0120071
0.0138391
0.0159153
0.0182707
0.0209454
0.023984
0.0274348
0.0313463
0.0357601
0.0406978
0.0461343
0.0519505
0.0578525
0.0632491
0.0671199
0.068084
0.0652433
0.0599825
0.0534915
0.046861
0.0407091
0.0350748
0.0293447
0.0213381
0.0048538
0.00572196
0.00671516
0.00784488
0.00912556
0.0105751
0.0122151
0.0140714
0.0161744
0.0185594
0.0212665
0.0243405
0.0278292
0.03178
0.0362325
0.0412043
0.0466627
0.052476
0.0583298
0.0636042
0.0672501
0.0678987
0.0647732
0.0594388
0.0529672
0.0464141
0.0403503
0.0347865
0.0291048
0.0211491
0.00499267
0.00588012
0.00689432
0.00804702
0.009353
0.0108305
0.0125015
0.0143924
0.0165337
0.0189612
0.021715
0.0248398
0.0283827
0.0323897
0.0368972
0.0419167
0.0474052
0.0532134
0.0589994
0.0641059
0.0674506
0.0676931
0.0642391
0.0588107
0.0523661
0.0459091
0.0399527
0.0344732
0.028847
0.0209459
0.00517142
0.00608372
0.00712507
0.00830759
0.00964659
0.0111609
0.0128731
0.0148101
0.0170032
0.0194886
0.0223069
0.0255027
0.0291222
0.0332095
0.0377968
0.0428876
0.048425
0.0542366
0.059946
0.0648523
0.0678443
0.0676434
0.0639289
0.0583678
0.0519383
0.0455719
0.0397187
0.034317
0.0287331
0.0208558
0.00539383
0.00633707
0.00741216
0.00863176
0.0100118
0.0115718
0.0133351
0.0153294
0.0175866
0.0201435
0.0230408
0.0263229
0.0300348
0.0342175
0.0388974
0.0440674
0.0496521
0.0554498
0.0610408
0.0656728
0.068208
0.0674661
0.0634625
0.0577718
0.0513798
0.0451315
0.039405
0.0340973
0.0285662
0.0207238
0.00566499
0.00664616
0.00776214
0.00902644
0.0104558
0.0120705
0.0138947
0.0159569
0.0182897
0.0209303
0.0239198
0.0273017
0.0311193
0.0354095
0.040191
0.0454423
0.0510647
0.0568188
0.0622315
0.0664908
0.0684424
0.067056
0.0627471
0.0569454
0.0506242
0.0445277
0.0389552
0.0337609
0.0282978
0.020512
0.00599252
0.00701977
0.00818432
0.00950165
0.0109894
0.0126686
0.0145643
0.0167057
0.0191261
0.021863
0.0249574
0.0284519
0.032387
0.0367939
0.0416809
0.0470081
0.0526461
0.0583082
0.0634567
0.0672138
0.0684307
0.0662997
0.0616896
0.0558152
0.0496098
0.0437049
0.0383161
0.0332571
0.027882
0.0201851
0.00639672
0.00747353
0.00869475
0.0100749
0.0116321
0.0133881
0.0153687
0.017604
0.0201278
0.0229778
0.0261942
0.0298179
0.033885
0.0384189
0.043413
0.0488032
0.05442
0.0599173
0.06468
0.0677634
0.0680664
0.0650985
0.0602108
0.0543177
0.0482795
0.0426062
0.0374298
0.032528
0.0272639
0.0196985
0.00640309
0.00748025
0.00870265
0.0100843
0.0116431
0.0134007
0.0153831
0.0176201
0.0201457
0.0229975
0.0262161
0.029842
0.0339119
0.038449
0.0434472
0.0488423
0.0544653
0.05997
0.0647413
0.0678341
0.0681462
0.0651845
0.0602981
0.0544029
0.0483602
0.0426814
0.0374991
0.0325911
0.0273196
0.0197411
0.00599518
0.00702323
0.00818849
0.00950668
0.0109954
0.0126756
0.0145725
0.0167151
0.0191369
0.0218756
0.024972
0.0284688
0.0324067
0.0368168
0.0417072
0.0470378
0.0526788
0.0583426
0.0634905
0.0672432
0.0684518
0.0663113
0.0616965
0.0558198
0.0496139
0.0437093
0.0383209
0.0332619
0.0278861
0.0201875
0.00566707
0.00664857
0.00776504
0.00903002
0.0104602
0.012076
0.0139015
0.0159651
0.0182997
0.0209423
0.023934
0.0273186
0.0311391
0.0354325
0.0402171
0.0454714
0.0510961
0.0568508
0.0622617
0.0665151
0.0684563
0.0670582
0.0627434
0.0569391
0.0506183
0.0445236
0.038953
0.03376
0.0282974
0.0205114
0.00539555
0.00633894
0.00741437
0.00863452
0.0100153
0.0115762
0.0133407
0.0153364
0.0175953
0.020154
0.0230535
0.026338
0.0300525
0.034238
0.0389208
0.0440934
0.0496801
0.0554785
0.061068
0.0656948
0.0682208
0.0674677
0.0634581
0.0577645
0.051373
0.0451266
0.0394022
0.0340961
0.0285657
0.0207233
0.00517286
0.00608523
0.00712681
0.00830975
0.00964933
0.0111644
0.0128775
0.0148156
0.0170101
0.0194971
0.0223171
0.0255148
0.0291366
0.0332263
0.037816
0.0429091
0.0484483
0.0542607
0.0599691
0.0648716
0.067856
0.0676455
0.0639253
0.0583613
0.0519319
0.0455672
0.039716
0.0343158
0.0287327
0.0208555
0.00499389
0.00588136
0.0068957
0.00804867
0.00935507
0.0108331
0.0125048
0.0143965
0.0165388
0.0189674
0.0217226
0.0248488
0.0283934
0.0324022
0.0369116
0.0419329
0.0474231
0.0532321
0.0590176
0.0641213
0.0674602
0.0676949
0.0642357
0.0588044
0.0523596
0.0459039
0.0399491
0.034471
0.0288456
0.0209448
0.00485486
0.00572298
0.00671624
0.00784613
0.00912709
0.010577
0.0122174
0.0140743
0.0161781
0.0185639
0.0212719
0.0243469
0.0278367
0.0317887
0.0362426
0.0412155
0.0466749
0.0524887
0.0583419
0.0636139
0.067255
0.0678965
0.0647645
0.0594281
0.0529566
0.046405
0.0403429
0.0347806
0.0290999
0.0211453
0.00475294
0.00560688
0.00658479
0.00769797
0.00896065
0.0103905
0.0120088
0.0138413
0.015918
0.0182739
0.0209493
0.0239886
0.0274402
0.0313525
0.0357673
0.0407058
0.0461431
0.0519598
0.0578615
0.0632567
0.0671244
0.0680838
0.0652385
0.059976
0.053485
0.0468554
0.0407046
0.0350713
0.0293419
0.021336
0.00468609
0.00553074
0.00649865
0.00760099
0.00885189
0.0102688
0.011873
0.0136898
0.0157491
0.0180859
0.0207399
0.0237559
0.0271823
0.031068
0.0354561
0.0403707
0.0457914
0.0516074
0.0575376
0.0630098
0.0670229
0.0681914
0.0655411
0.0603335
0.0538335
0.0471534
0.0409435
0.0352624
0.0295004
0.0214609
0.00465299
0.00549305
0.00645602
0.00755304
0.00879816
0.0102088
0.011806
0.0136151
0.0156659
0.0179931
0.0206366
0.0236409
0.0270546
0.0309268
0.0353014
0.0402037
0.0456156
0.0514303
0.0573737
0.0628828
0.0669669
0.0682388
0.0656869
0.0605082
0.0540051
0.0473004
0.041061
0.035356
0.0295778
0.0215219
0.00465299
0.00549305
0.00645602
0.00755304
0.00879816
0.0102088
0.011806
0.0136151
0.0156659
0.0179931
0.0206366
0.0236409
0.0270546
0.0309268
0.0353014
0.0402037
0.0456156
0.0514303
0.0573737
0.0628828
0.0669669
0.0682388
0.0656869
0.0605082
0.0540051
0.0473004
0.041061
0.035356
0.0295778
0.0215219
0.00468609
0.00553074
0.00649865
0.00760099
0.00885189
0.0102688
0.011873
0.0136898
0.0157491
0.0180859
0.0207399
0.0237559
0.0271823
0.031068
0.0354561
0.0403707
0.0457914
0.0516074
0.0575376
0.0630098
0.0670229
0.0681914
0.0655411
0.0603335
0.0538335
0.0471534
0.0409435
0.0352624
0.0295004
0.0214609
0.00475294
0.00560688
0.00658479
0.00769797
0.00896065
0.0103905
0.0120088
0.0138413
0.015918
0.0182739
0.0209492
0.0239886
0.0274402
0.0313525
0.0357673
0.0407058
0.0461431
0.0519598
0.0578615
0.0632567
0.0671244
0.0680838
0.0652385
0.059976
0.053485
0.0468554
0.0407046
0.0350713
0.0293419
0.021336
0.00485486
0.00572298
0.00671624
0.00784613
0.00912709
0.010577
0.0122174
0.0140743
0.0161781
0.0185639
0.0212719
0.0243469
0.0278367
0.0317887
0.0362426
0.0412155
0.0466749
0.0524887
0.0583419
0.0636139
0.067255
0.0678965
0.0647645
0.0594281
0.0529566
0.046405
0.0403429
0.0347806
0.0290999
0.0211453
0.00499389
0.00588136
0.0068957
0.00804867
0.00935507
0.0108331
0.0125048
0.0143965
0.0165388
0.0189674
0.0217226
0.0248488
0.0283934
0.0324022
0.0369116
0.0419329
0.0474231
0.0532321
0.0590176
0.0641213
0.0674602
0.0676949
0.0642357
0.0588044
0.0523596
0.0459039
0.0399491
0.034471
0.0288456
0.0209448
0.00517286
0.00608523
0.00712681
0.00830975
0.00964933
0.0111644
0.0128775
0.0148156
0.0170101
0.0194971
0.0223171
0.0255148
0.0291366
0.0332263
0.037816
0.0429091
0.0484483
0.0542607
0.0599691
0.0648716
0.067856
0.0676455
0.0639253
0.0583613
0.0519319
0.0455672
0.039716
0.0343158
0.0287327
0.0208555
0.00539555
0.00633894
0.00741437
0.00863452
0.0100153
0.0115762
0.0133407
0.0153364
0.0175953
0.020154
0.0230535
0.026338
0.0300525
0.034238
0.0389208
0.0440934
0.0496801
0.0554785
0.061068
0.0656948
0.0682208
0.0674677
0.0634581
0.0577645
0.051373
0.0451266
0.0394022
0.0340961
0.0285657
0.0207233
0.00566707
0.00664857
0.00776504
0.00903002
0.0104602
0.012076
0.0139015
0.0159651
0.0182997
0.0209423
0.023934
0.0273186
0.0311391
0.0354325
0.0402171
0.0454714
0.0510961
0.0568508
0.0622617
0.0665151
0.0684563
0.0670582
0.0627434
0.0569391
0.0506183
0.0445236
0.038953
0.03376
0.0282974
0.0205114
0.00599518
0.00702323
0.00818849
0.00950668
0.0109954
0.0126756
0.0145725
0.0167151
0.0191369
0.0218756
0.024972
0.0284688
0.0324067
0.0368168
0.0417072
0.0470378
0.0526788
0.0583426
0.0634905
0.0672432
0.0684518
0.0663113
0.0616965
0.0558197
0.0496139
0.0437093
0.0383209
0.0332619
0.0278861
0.0201875
0.00640309
0.00748025
0.00870265
0.0100843
0.0116431
0.0134007
0.0153831
0.0176201
0.0201457
0.0229975
0.0262161
0.029842
0.0339119
0.038449
0.0434472
0.0488423
0.0544653
0.05997
0.0647413
0.0678341
0.0681462
0.0651845
0.0602981
0.0544029
0.0483602
0.0426814
0.0374991
0.0325911
0.0273196
0.0197411
)
;

boundaryField
{
    walls
    {
        type            fixedValue;
        value           uniform 1e-10;
    }
    inlet
    {
        type            cyclic;
    }
    outlet
    {
        type            cyclic;
    }
}


// ************************************************************************* //
