/*--------------------------------*- C++ -*----------------------------------*\
| =========                 |                                                 |
| \\      /  F ield         | OpenFOAM: The Open Source CFD Toolbox           |
|  \\    /   O peration     | Version:  2306                                  |
|   \\  /    A nd           | Website:  www.openfoam.com                      |
|    \\/     M anipulation  |                                                 |
\*---------------------------------------------------------------------------*/
FoamFile
{
    version     2.0;
    format      ascii;
    arch        "LSB;label=32;scalar=64";
    class       volScalarField;
    location    "4320";
    object      f;
}
// * * * * * * * * * * * * * * * * * * * * * * * * * * * * * * * * * * * * * //

dimensions      [0 0 -1 0 0 0 0];

internalField   nonuniform List<scalar> 
2800
(
0.0916015
0.0888117
0.0862144
0.0839118
0.0819301
0.0802785
0.0789594
0.0779721
0.0773153
0.0769873
0.0769873
0.0773153
0.0779721
0.0789594
0.0802785
0.0819301
0.0839118
0.0862144
0.0888117
0.0916015
0.0888007
0.0851682
0.0819877
0.0792112
0.076836
0.0748632
0.0732913
0.0721172
0.0713371
0.0709479
0.0709479
0.0713371
0.0721172
0.0732913
0.0748632
0.076836
0.0792112
0.0819876
0.0851682
0.0888007
0.0862003
0.0819814
0.0782866
0.0750938
0.0723844
0.0701468
0.0683714
0.0670493
0.0661728
0.065736
0.065736
0.0661728
0.0670493
0.0683714
0.0701468
0.0723844
0.0750938
0.0782866
0.0819813
0.0862003
0.0838973
0.0792021
0.0750899
0.0715518
0.0685672
0.066116
0.0641801
0.0627436
0.0617936
0.061321
0.061321
0.0617936
0.0627436
0.0641801
0.066116
0.0685672
0.0715518
0.0750899
0.0792021
0.0838973
0.0819163
0.076826
0.0723785
0.0685647
0.065362
0.0627441
0.0606853
0.0591629
0.0581587
0.05766
0.05766
0.0581587
0.0591629
0.0606852
0.0627441
0.065362
0.0685647
0.0723785
0.076826
0.0819163
0.0802659
0.0748533
0.07014
0.0661121
0.0627424
0.0599988
0.0578491
0.0562646
0.0552218
0.0547046
0.0547046
0.0552218
0.0562646
0.0578491
0.0599988
0.0627424
0.066112
0.07014
0.0748533
0.0802659
0.078948
0.0732819
0.0683644
0.0641754
0.0606825
0.057848
0.0556338
0.054006
0.052937
0.0524074
0.0524074
0.052937
0.054006
0.0556338
0.057848
0.0606825
0.0641754
0.0683644
0.0732819
0.078948
0.0779618
0.0721084
0.0670424
0.0627386
0.0591596
0.0562627
0.0540052
0.052349
0.051263
0.0507256
0.0507256
0.051263
0.052349
0.0540052
0.0562627
0.0591596
0.0627386
0.0670424
0.0721084
0.0779618
0.0773058
0.0713288
0.066166
0.0617885
0.0581551
0.0552195
0.0529357
0.0512625
0.0501666
0.0496247
0.0496247
0.0501666
0.0512625
0.0529357
0.0552195
0.0581551
0.0617885
0.066166
0.0713288
0.0773058
0.0769782
0.0709399
0.0657294
0.0613159
0.0576562
0.0547022
0.0524059
0.0507249
0.0496245
0.0490808
0.0490808
0.0496245
0.0507249
0.0524059
0.0547022
0.0576562
0.0613159
0.0657294
0.0709399
0.0769782
0.0769782
0.0709399
0.0657294
0.0613159
0.0576562
0.0547022
0.0524059
0.0507249
0.0496245
0.0490808
0.0490808
0.0496245
0.0507249
0.0524059
0.0547022
0.0576562
0.0613159
0.0657294
0.0709399
0.0769782
0.0773058
0.0713288
0.066166
0.0617885
0.0581551
0.0552195
0.0529357
0.0512625
0.0501666
0.0496247
0.0496247
0.0501666
0.0512625
0.0529357
0.0552195
0.0581551
0.0617885
0.066166
0.0713288
0.0773058
0.0779618
0.0721084
0.0670424
0.0627386
0.0591596
0.0562627
0.0540052
0.052349
0.051263
0.0507256
0.0507256
0.051263
0.052349
0.0540052
0.0562627
0.0591596
0.0627386
0.0670424
0.0721084
0.0779618
0.078948
0.0732819
0.0683644
0.0641754
0.0606825
0.057848
0.0556338
0.054006
0.052937
0.0524074
0.0524074
0.052937
0.054006
0.0556338
0.057848
0.0606825
0.0641754
0.0683644
0.0732819
0.078948
0.0802659
0.0748533
0.07014
0.066112
0.0627424
0.0599988
0.0578491
0.0562646
0.0552218
0.0547046
0.0547046
0.0552218
0.0562646
0.0578491
0.0599988
0.0627424
0.066112
0.07014
0.0748533
0.0802659
0.0819163
0.076826
0.0723785
0.0685647
0.065362
0.0627441
0.0606852
0.0591629
0.0581587
0.05766
0.05766
0.0581587
0.0591629
0.0606852
0.0627441
0.065362
0.0685647
0.0723785
0.076826
0.0819163
0.0838973
0.0792021
0.0750899
0.0715518
0.0685672
0.066116
0.0641801
0.0627436
0.0617936
0.061321
0.061321
0.0617936
0.0627436
0.0641801
0.066116
0.0685672
0.0715518
0.0750899
0.0792021
0.0838973
0.0862003
0.0819813
0.0782866
0.0750938
0.0723844
0.0701468
0.0683714
0.0670493
0.0661728
0.065736
0.065736
0.0661728
0.0670493
0.0683714
0.0701468
0.0723844
0.0750938
0.0782866
0.0819813
0.0862003
0.0888007
0.0851682
0.0819876
0.0792112
0.076836
0.0748632
0.0732913
0.0721172
0.0713371
0.0709479
0.0709479
0.0713371
0.0721172
0.0732913
0.0748632
0.076836
0.0792112
0.0819876
0.0851682
0.0888007
0.0916015
0.0888117
0.0862144
0.0839118
0.0819301
0.0802785
0.0789594
0.0779721
0.0773153
0.0769873
0.0769873
0.0773153
0.0779721
0.0789594
0.0802785
0.0819301
0.0839118
0.0862144
0.0888117
0.0916015
0.096605
0.102944
0.108958
0.114516
0.119504
0.123828
0.127412
0.130192
0.132119
0.133156
0.133278
0.132466
0.13071
0.128006
0.124353
0.119756
0.114223
0.107768
0.100417
0.0922094
0.0832181
0.0735773
0.0635339
0.0534754
0.0437147
0.0344521
0.0257933
0.0177719
0.0103696
0.00351665
0.0940119
0.100484
0.106667
0.112432
0.117663
0.122261
0.126141
0.129236
0.13149
0.13286
0.133316
0.132834
0.1314
0.129006
0.125646
0.121322
0.116036
0.109798
0.102625
0.0945496
0.0856312
0.0759838
0.0658315
0.0555479
0.0454886
0.0358927
0.0268931
0.0185398
0.0108223
0.00367196
0.091727
0.0982778
0.104589
0.110522
0.115957
0.120787
0.124924
0.128293
0.130834
0.1325
0.133254
0.133068
0.131925
0.12981
0.126717
0.122641
0.117582
0.111545
0.10454
0.0965935
0.0877522
0.0781138
0.0678793
0.0574044
0.0470825
0.0371889
0.0278827
0.0192301
0.0112285
0.00381073
0.0897145
0.0963247
0.102736
0.108806
0.114409
0.119435
0.123789
0.127392
0.130181
0.132102
0.133114
0.133188
0.132299
0.130431
0.127574
0.12372
0.118866
0.113012
0.106163
0.0983382
0.0895757
0.0799585
0.0696657
0.0590328
0.0484855
0.0383322
0.0287563
0.0198395
0.0115867
0.00393273
0.0879824
0.094636
0.101125
0.107305
0.113045
0.118232
0.122767
0.126567
0.129563
0.1317
0.132932
0.133225
0.132554
0.130899
0.128247
0.124587
0.119912
0.11422
0.107511
0.0997985
0.0911124
0.0815233
0.0711909
0.06043
0.0496932
0.0393182
0.0295103
0.0203654
0.0118957
0.00403771
0.0865366
0.0932204
0.0997697
0.106036
0.111887
0.117204
0.121887
0.125848
0.129016
0.13133
0.132744
0.133221
0.132731
0.131254
0.128772
0.125275
0.120753
0.115199
0.108611
0.100997
0.0923804
0.0828221
0.0724642
0.0616018
0.0507093
0.0401493
0.0301466
0.0208093
0.0121565
0.0041262
0.08538
0.092084
0.0986779
0.105011
0.110948
0.116369
0.12117
0.125261
0.128566
0.131025
0.132587
0.133212
0.13287
0.131536
0.129194
0.125828
0.121428
0.115984
0.109492
0.101957
0.0933968
0.0838657
0.0734942
0.062565
0.051554
0.0408457
0.0306827
0.0211853
0.0123785
0.00420238
0.0845131
0.0912302
0.0978558
0.104238
0.110239
0.115738
0.120627
0.124816
0.128226
0.130794
0.132468
0.133206
0.132975
0.13175
0.129512
0.126245
0.121936
0.116575
0.110155
0.102679
0.0941625
0.0846538
0.0742757
0.0633017
0.0522038
0.0413834
0.0310978
0.0214769
0.012551
0.00426181
0.0839357
0.0906605
0.0973066
0.103721
0.109765
0.115315
0.120264
0.124518
0.127998
0.130639
0.132388
0.1332
0.133044
0.131891
0.129722
0.126521
0.122273
0.116967
0.110596
0.10316
0.0946732
0.0851806
0.0747994
0.0637967
0.0526413
0.0417458
0.0313777
0.0216736
0.0126674
0.00430188
0.0836473
0.0903755
0.0970316
0.103462
0.109527
0.115103
0.120081
0.124368
0.127883
0.130561
0.132347
0.133197
0.133077
0.131961
0.129827
0.126658
0.12244
0.117162
0.110816
0.1034
0.0949282
0.085444
0.0750616
0.0640449
0.0528609
0.0419279
0.0315184
0.0217725
0.0127259
0.004322
0.0836473
0.0903755
0.0970316
0.103462
0.109527
0.115103
0.120081
0.124368
0.127883
0.130561
0.132347
0.133197
0.133077
0.131961
0.129827
0.126658
0.12244
0.117162
0.110816
0.1034
0.0949282
0.085444
0.0750616
0.0640449
0.0528609
0.0419279
0.0315184
0.0217725
0.0127259
0.004322
0.0839357
0.0906605
0.0973066
0.103721
0.109765
0.115315
0.120264
0.124518
0.127998
0.130639
0.132388
0.1332
0.133044
0.131891
0.129722
0.126521
0.122273
0.116967
0.110596
0.10316
0.0946732
0.0851806
0.0747994
0.0637967
0.0526413
0.0417458
0.0313777
0.0216736
0.0126674
0.00430188
0.0845131
0.0912302
0.0978558
0.104238
0.110239
0.115738
0.120627
0.124816
0.128226
0.130794
0.132468
0.133206
0.132975
0.13175
0.129512
0.126245
0.121936
0.116575
0.110155
0.102679
0.0941625
0.0846538
0.0742757
0.0633017
0.0522038
0.0413834
0.0310978
0.0214769
0.012551
0.00426181
0.08538
0.092084
0.0986779
0.105011
0.110948
0.116369
0.12117
0.125261
0.128566
0.131025
0.132587
0.133212
0.13287
0.131536
0.129194
0.125828
0.121428
0.115984
0.109492
0.101957
0.0933968
0.0838657
0.0734942
0.062565
0.051554
0.0408457
0.0306827
0.0211853
0.0123785
0.00420238
0.0865366
0.0932204
0.0997697
0.106036
0.111887
0.117204
0.121887
0.125848
0.129016
0.13133
0.132744
0.133221
0.132731
0.131254
0.128772
0.125275
0.120753
0.115199
0.108611
0.100997
0.0923804
0.0828221
0.0724642
0.0616018
0.0507093
0.0401493
0.0301466
0.0208093
0.0121565
0.0041262
0.0879824
0.094636
0.101125
0.107305
0.113045
0.118232
0.122767
0.126567
0.129563
0.1317
0.132932
0.133225
0.132554
0.130899
0.128247
0.124587
0.119912
0.11422
0.107511
0.0997985
0.0911124
0.0815233
0.0711909
0.06043
0.0496932
0.0393182
0.0295103
0.0203654
0.0118957
0.00403771
0.0897145
0.0963247
0.102736
0.108806
0.114409
0.119435
0.123789
0.127392
0.130181
0.132102
0.133114
0.133188
0.132299
0.130431
0.127574
0.12372
0.118866
0.113012
0.106163
0.0983382
0.0895757
0.0799585
0.0696657
0.0590328
0.0484855
0.0383322
0.0287563
0.0198395
0.0115867
0.00393273
0.091727
0.0982778
0.104589
0.110522
0.115957
0.120787
0.124924
0.128293
0.130834
0.1325
0.133254
0.133068
0.131925
0.12981
0.126717
0.122641
0.117582
0.111545
0.10454
0.0965935
0.0877522
0.0781138
0.0678793
0.0574044
0.0470825
0.0371889
0.0278827
0.0192301
0.0112285
0.00381073
0.0940118
0.100484
0.106667
0.112432
0.117663
0.122261
0.126141
0.129236
0.13149
0.13286
0.133316
0.132834
0.1314
0.129006
0.125646
0.121322
0.116036
0.109798
0.102625
0.0945496
0.0856312
0.0759838
0.0658315
0.0555479
0.0454886
0.0358927
0.0268931
0.0185398
0.0108223
0.00367196
0.096605
0.102944
0.108958
0.114516
0.119504
0.123828
0.127412
0.130192
0.132119
0.133156
0.133278
0.132466
0.13071
0.128006
0.124353
0.119756
0.114223
0.107768
0.100417
0.0922094
0.0832181
0.0735773
0.0635339
0.0534754
0.0437147
0.0344521
0.0257933
0.0177719
0.0103696
0.00351665
0.0966325
0.102961
0.10897
0.114526
0.119513
0.123836
0.127419
0.130198
0.132125
0.133163
0.133286
0.132476
0.130723
0.128021
0.124372
0.119779
0.11425
0.107799
0.100451
0.0922459
0.0832563
0.0736161
0.0635718
0.0535109
0.0437464
0.034479
0.0258148
0.0177876
0.0103793
0.0035201
0.0940317
0.100503
0.106684
0.112448
0.117678
0.122275
0.126154
0.129248
0.131501
0.13287
0.133325
0.132842
0.131407
0.129011
0.12565
0.121324
0.116036
0.109796
0.102621
0.0945438
0.0856232
0.0759742
0.065821
0.0555377
0.0454794
0.035885
0.0268871
0.0185355
0.0108197
0.00367101
0.0917482
0.0982986
0.104609
0.110541
0.115975
0.120804
0.12494
0.128308
0.130848
0.132512
0.133263
0.133076
0.131929
0.129812
0.126716
0.122637
0.117574
0.111534
0.104526
0.096576
0.0877323
0.0780922
0.0678574
0.0573839
0.0470644
0.037174
0.0278712
0.019222
0.0112237
0.00380903
0.0897352
0.0963455
0.102756
0.108826
0.114428
0.119453
0.123806
0.127408
0.130194
0.132113
0.133123
0.133194
0.132302
0.130431
0.127571
0.123714
0.118856
0.112998
0.106146
0.0983182
0.0895534
0.0799346
0.0696417
0.0590103
0.0484658
0.0383159
0.0287437
0.0198306
0.0115815
0.00393091
0.0880015
0.0946553
0.101144
0.107324
0.113063
0.118249
0.122782
0.126581
0.129575
0.13171
0.132939
0.13323
0.132556
0.130898
0.128243
0.12458
0.119902
0.114207
0.107495
0.09978
0.0910918
0.0815013
0.0711687
0.0604092
0.0496749
0.0393031
0.0294987
0.0203572
0.0118909
0.00403603
0.0865538
0.0932376
0.0997864
0.106052
0.111902
0.117218
0.1219
0.12586
0.129026
0.131338
0.13275
0.133225
0.132732
0.131253
0.128769
0.125269
0.120744
0.115188
0.108598
0.100982
0.0923634
0.0828039
0.0724457
0.0615843
0.0506938
0.0401365
0.0301367
0.0208024
0.0121523
0.00412475
0.0853952
0.0920989
0.0986921
0.105025
0.110961
0.116381
0.12118
0.12527
0.128574
0.131032
0.132592
0.133215
0.132871
0.131536
0.129192
0.125824
0.121422
0.115976
0.109483
0.101946
0.0933844
0.0838523
0.0734805
0.0625517
0.0515421
0.0408357
0.0306749
0.0211797
0.0123752
0.0042012
0.0845267
0.091243
0.0978678
0.104249
0.110249
0.115747
0.120636
0.124823
0.128233
0.1308
0.132472
0.133209
0.132977
0.131751
0.129511
0.126243
0.121932
0.11657
0.11015
0.102672
0.0941547
0.0846453
0.0742668
0.063293
0.0521959
0.0413768
0.0310926
0.0214732
0.0125488
0.00426101
0.0839481
0.0906718
0.0973169
0.10373
0.109773
0.115323
0.120271
0.124524
0.128003
0.130644
0.132392
0.133204
0.133046
0.131893
0.129723
0.126521
0.122271
0.116965
0.110593
0.103157
0.0946689
0.0851757
0.0747942
0.0637915
0.0526365
0.0417418
0.0313745
0.0216713
0.0126661
0.00430137
0.083659
0.0903861
0.097041
0.10347
0.109535
0.11511
0.120087
0.124374
0.127888
0.130565
0.132351
0.1332
0.13308
0.131963
0.129828
0.126658
0.12244
0.117161
0.110814
0.103398
0.0949258
0.085441
0.0750583
0.0640416
0.0528578
0.0419253
0.0315163
0.021771
0.012725
0.00432166
0.083659
0.0903861
0.097041
0.10347
0.109535
0.11511
0.120087
0.124374
0.127888
0.130565
0.132351
0.1332
0.13308
0.131963
0.129828
0.126658
0.12244
0.117161
0.110814
0.103398
0.0949258
0.085441
0.0750583
0.0640416
0.0528578
0.0419253
0.0315163
0.021771
0.012725
0.00432166
0.0839481
0.0906718
0.0973169
0.10373
0.109773
0.115323
0.120271
0.124524
0.128003
0.130644
0.132392
0.133204
0.133046
0.131893
0.129723
0.126521
0.122271
0.116965
0.110593
0.103157
0.0946689
0.0851757
0.0747942
0.0637915
0.0526365
0.0417418
0.0313745
0.0216713
0.0126661
0.00430137
0.0845267
0.091243
0.0978678
0.104249
0.110249
0.115747
0.120636
0.124823
0.128233
0.1308
0.132472
0.133209
0.132977
0.131751
0.129511
0.126243
0.121932
0.11657
0.11015
0.102672
0.0941547
0.0846453
0.0742668
0.063293
0.0521959
0.0413768
0.0310926
0.0214732
0.0125488
0.00426101
0.0853952
0.0920989
0.0986921
0.105025
0.110961
0.116381
0.12118
0.12527
0.128574
0.131032
0.132592
0.133215
0.132871
0.131536
0.129192
0.125824
0.121422
0.115976
0.109483
0.101946
0.0933844
0.0838523
0.0734805
0.0625517
0.0515421
0.0408357
0.0306749
0.0211797
0.0123752
0.0042012
0.0865538
0.0932376
0.0997864
0.106052
0.111902
0.117218
0.1219
0.12586
0.129026
0.131338
0.13275
0.133225
0.132732
0.131253
0.128769
0.125269
0.120744
0.115188
0.108598
0.100982
0.0923634
0.0828039
0.0724457
0.0615843
0.0506938
0.0401365
0.0301367
0.0208024
0.0121523
0.00412475
0.0880015
0.0946553
0.101144
0.107324
0.113063
0.118249
0.122782
0.126581
0.129575
0.13171
0.132939
0.13323
0.132556
0.130898
0.128243
0.12458
0.119902
0.114207
0.107495
0.09978
0.0910918
0.0815013
0.0711687
0.0604092
0.0496749
0.0393031
0.0294987
0.0203572
0.0118909
0.00403603
0.0897352
0.0963455
0.102756
0.108826
0.114428
0.119453
0.123806
0.127408
0.130194
0.132113
0.133123
0.133194
0.132302
0.130431
0.127571
0.123714
0.118856
0.112998
0.106146
0.0983182
0.0895534
0.0799346
0.0696417
0.0590103
0.0484658
0.0383159
0.0287437
0.0198306
0.0115815
0.00393091
0.0917482
0.0982986
0.104609
0.110541
0.115975
0.120804
0.12494
0.128308
0.130848
0.132512
0.133263
0.133076
0.131929
0.129812
0.126716
0.122637
0.117574
0.111534
0.104526
0.096576
0.0877323
0.0780922
0.0678574
0.0573839
0.0470644
0.037174
0.0278712
0.019222
0.0112237
0.00380903
0.0940317
0.100503
0.106684
0.112448
0.117678
0.122275
0.126154
0.129248
0.131501
0.13287
0.133325
0.132842
0.131407
0.129011
0.12565
0.121324
0.116036
0.109796
0.102621
0.0945438
0.0856232
0.0759742
0.065821
0.0555377
0.0454794
0.035885
0.0268871
0.0185355
0.0108197
0.00367101
0.0966325
0.102961
0.10897
0.114526
0.119513
0.123836
0.127419
0.130198
0.132125
0.133163
0.133286
0.132476
0.130722
0.128021
0.124372
0.119779
0.11425
0.107799
0.100451
0.0922459
0.0832563
0.0736161
0.0635718
0.0535109
0.0437464
0.034479
0.0258148
0.0177876
0.0103793
0.0035201
0.096605
0.102944
0.108958
0.114516
0.119504
0.123828
0.127412
0.130192
0.132119
0.133156
0.133278
0.132466
0.13071
0.128006
0.124353
0.119756
0.114223
0.107768
0.100417
0.0922094
0.0832181
0.0735773
0.0635339
0.0534754
0.0437147
0.0344521
0.0257933
0.0177719
0.0103696
0.00351665
0.0940119
0.100484
0.106667
0.112432
0.117663
0.122261
0.126141
0.129236
0.13149
0.13286
0.133316
0.132834
0.1314
0.129006
0.125646
0.121322
0.116036
0.109798
0.102625
0.0945496
0.0856312
0.0759838
0.0658315
0.0555479
0.0454886
0.0358927
0.0268931
0.0185398
0.0108223
0.00367196
0.091727
0.0982778
0.104589
0.110522
0.115957
0.120787
0.124924
0.128293
0.130834
0.1325
0.133254
0.133068
0.131925
0.12981
0.126717
0.122641
0.117582
0.111545
0.10454
0.0965935
0.0877522
0.0781138
0.0678793
0.0574044
0.0470825
0.0371889
0.0278827
0.0192301
0.0112285
0.00381073
0.0897145
0.0963247
0.102736
0.108806
0.114409
0.119435
0.123789
0.127392
0.130181
0.132102
0.133114
0.133188
0.132299
0.130431
0.127574
0.12372
0.118866
0.113012
0.106163
0.0983382
0.0895757
0.0799585
0.0696657
0.0590328
0.0484855
0.0383322
0.0287563
0.0198395
0.0115867
0.00393273
0.0879824
0.094636
0.101125
0.107305
0.113045
0.118232
0.122767
0.126567
0.129563
0.1317
0.132932
0.133225
0.132554
0.130899
0.128247
0.124587
0.119912
0.11422
0.107511
0.0997985
0.0911124
0.0815233
0.0711909
0.06043
0.0496932
0.0393182
0.0295103
0.0203654
0.0118957
0.00403771
0.0865366
0.0932204
0.0997697
0.106036
0.111887
0.117204
0.121887
0.125848
0.129016
0.13133
0.132744
0.133221
0.132731
0.131254
0.128772
0.125275
0.120753
0.115199
0.108611
0.100997
0.0923804
0.0828221
0.0724642
0.0616018
0.0507093
0.0401493
0.0301466
0.0208093
0.0121565
0.0041262
0.08538
0.0920841
0.0986779
0.105011
0.110948
0.116369
0.12117
0.125261
0.128566
0.131025
0.132587
0.133212
0.13287
0.131536
0.129194
0.125828
0.121428
0.115984
0.109492
0.101957
0.0933968
0.0838657
0.0734942
0.062565
0.051554
0.0408457
0.0306827
0.0211853
0.0123785
0.00420238
0.0845131
0.0912302
0.0978558
0.104238
0.110239
0.115738
0.120627
0.124816
0.128226
0.130794
0.132468
0.133206
0.132975
0.13175
0.129512
0.126245
0.121936
0.116575
0.110155
0.102679
0.0941625
0.0846538
0.0742757
0.0633017
0.0522038
0.0413834
0.0310978
0.0214769
0.012551
0.00426181
0.0839358
0.0906605
0.0973066
0.103721
0.109765
0.115315
0.120264
0.124518
0.127998
0.130639
0.132388
0.1332
0.133044
0.131891
0.129722
0.126521
0.122273
0.116967
0.110596
0.10316
0.0946732
0.0851806
0.0747994
0.0637967
0.0526413
0.0417458
0.0313777
0.0216736
0.0126674
0.00430188
0.0836473
0.0903755
0.0970316
0.103462
0.109527
0.115103
0.120081
0.124368
0.127883
0.130561
0.132347
0.133197
0.133077
0.131961
0.129827
0.126658
0.12244
0.117162
0.110816
0.1034
0.0949282
0.085444
0.0750616
0.0640449
0.0528609
0.0419279
0.0315184
0.0217725
0.0127259
0.004322
0.0836473
0.0903755
0.0970316
0.103462
0.109527
0.115103
0.120081
0.124368
0.127883
0.130561
0.132347
0.133197
0.133077
0.131961
0.129827
0.126658
0.12244
0.117162
0.110816
0.1034
0.0949282
0.085444
0.0750616
0.0640449
0.0528609
0.0419279
0.0315184
0.0217725
0.0127259
0.004322
0.0839358
0.0906605
0.0973066
0.103721
0.109765
0.115315
0.120264
0.124518
0.127998
0.130639
0.132388
0.1332
0.133044
0.131891
0.129722
0.126521
0.122273
0.116967
0.110596
0.10316
0.0946732
0.0851806
0.0747994
0.0637967
0.0526413
0.0417458
0.0313777
0.0216736
0.0126674
0.00430188
0.0845131
0.0912302
0.0978558
0.104238
0.110239
0.115738
0.120627
0.124816
0.128226
0.130794
0.132468
0.133206
0.132975
0.13175
0.129512
0.126245
0.121936
0.116575
0.110155
0.102679
0.0941625
0.0846538
0.0742757
0.0633017
0.0522038
0.0413834
0.0310978
0.0214769
0.012551
0.00426181
0.08538
0.0920841
0.0986779
0.105011
0.110948
0.116369
0.12117
0.125261
0.128566
0.131025
0.132587
0.133212
0.13287
0.131536
0.129194
0.125828
0.121428
0.115984
0.109492
0.101957
0.0933968
0.0838657
0.0734942
0.062565
0.051554
0.0408457
0.0306827
0.0211853
0.0123785
0.00420238
0.0865366
0.0932204
0.0997697
0.106036
0.111887
0.117204
0.121887
0.125848
0.129016
0.13133
0.132744
0.133221
0.132731
0.131254
0.128772
0.125275
0.120753
0.115199
0.108611
0.100997
0.0923804
0.0828221
0.0724642
0.0616018
0.0507093
0.0401493
0.0301466
0.0208093
0.0121565
0.0041262
0.0879824
0.094636
0.101125
0.107305
0.113045
0.118232
0.122767
0.126567
0.129563
0.1317
0.132932
0.133225
0.132554
0.130899
0.128247
0.124587
0.119912
0.11422
0.107511
0.0997985
0.0911124
0.0815233
0.0711909
0.06043
0.0496932
0.0393182
0.0295103
0.0203654
0.0118957
0.00403771
0.0897145
0.0963247
0.102736
0.108806
0.114409
0.119435
0.123789
0.127392
0.130181
0.132102
0.133114
0.133188
0.132299
0.130431
0.127574
0.12372
0.118866
0.113012
0.106163
0.0983382
0.0895757
0.0799585
0.0696657
0.0590328
0.0484855
0.0383322
0.0287563
0.0198395
0.0115867
0.00393273
0.091727
0.0982778
0.104589
0.110522
0.115957
0.120787
0.124924
0.128293
0.130834
0.1325
0.133254
0.133068
0.131925
0.12981
0.126717
0.122641
0.117582
0.111545
0.10454
0.0965935
0.0877522
0.0781138
0.0678793
0.0574044
0.0470825
0.0371889
0.0278827
0.0192301
0.0112285
0.00381073
0.0940119
0.100484
0.106667
0.112432
0.117663
0.122261
0.126141
0.129236
0.13149
0.13286
0.133316
0.132834
0.1314
0.129006
0.125646
0.121322
0.116036
0.109798
0.102625
0.0945496
0.0856312
0.0759838
0.0658315
0.0555479
0.0454886
0.0358927
0.0268931
0.0185398
0.0108223
0.00367196
0.096605
0.102944
0.108958
0.114516
0.119504
0.123828
0.127412
0.130192
0.132119
0.133156
0.133278
0.132466
0.13071
0.128006
0.124353
0.119756
0.114223
0.107768
0.100417
0.0922094
0.0832181
0.0735773
0.0635339
0.0534754
0.0437147
0.0344521
0.0257933
0.0177719
0.0103696
0.00351665
0.0966325
0.102961
0.10897
0.114526
0.119513
0.123836
0.127419
0.130198
0.132125
0.133163
0.133286
0.132476
0.130723
0.128021
0.124372
0.119779
0.11425
0.107799
0.100451
0.0922459
0.0832563
0.0736161
0.0635718
0.0535109
0.0437464
0.034479
0.0258148
0.0177876
0.0103793
0.0035201
0.0940317
0.100503
0.106684
0.112448
0.117678
0.122275
0.126154
0.129248
0.131501
0.13287
0.133325
0.132842
0.131407
0.129011
0.12565
0.121324
0.116036
0.109796
0.102621
0.0945438
0.0856232
0.0759742
0.065821
0.0555377
0.0454794
0.035885
0.0268871
0.0185355
0.0108197
0.00367101
0.0917482
0.0982986
0.104609
0.110542
0.115975
0.120804
0.12494
0.128308
0.130848
0.132512
0.133263
0.133076
0.131929
0.129812
0.126716
0.122637
0.117574
0.111534
0.104526
0.096576
0.0877323
0.0780922
0.0678574
0.0573839
0.0470644
0.037174
0.0278712
0.019222
0.0112237
0.00380903
0.0897352
0.0963455
0.102756
0.108826
0.114428
0.119453
0.123806
0.127408
0.130194
0.132113
0.133123
0.133194
0.132302
0.130431
0.127571
0.123714
0.118856
0.112998
0.106146
0.0983182
0.0895534
0.0799346
0.0696417
0.0590103
0.0484658
0.0383159
0.0287437
0.0198306
0.0115815
0.00393091
0.0880015
0.0946553
0.101144
0.107324
0.113063
0.118249
0.122782
0.126581
0.129575
0.13171
0.132939
0.13323
0.132556
0.130898
0.128243
0.12458
0.119902
0.114207
0.107495
0.09978
0.0910918
0.0815013
0.0711687
0.0604092
0.0496749
0.0393031
0.0294987
0.0203572
0.0118909
0.00403603
0.0865538
0.0932376
0.0997864
0.106052
0.111902
0.117218
0.1219
0.12586
0.129026
0.131338
0.13275
0.133225
0.132732
0.131253
0.128769
0.125269
0.120744
0.115188
0.108598
0.100982
0.0923634
0.0828039
0.0724457
0.0615843
0.0506938
0.0401365
0.0301367
0.0208024
0.0121523
0.00412475
0.0853952
0.0920989
0.0986921
0.105025
0.110961
0.116381
0.12118
0.12527
0.128574
0.131032
0.132592
0.133215
0.132871
0.131536
0.129192
0.125824
0.121422
0.115976
0.109483
0.101946
0.0933844
0.0838523
0.0734805
0.0625517
0.0515421
0.0408357
0.0306749
0.0211797
0.0123752
0.0042012
0.0845267
0.091243
0.0978678
0.104249
0.110249
0.115747
0.120636
0.124823
0.128233
0.1308
0.132472
0.133209
0.132977
0.131751
0.129511
0.126243
0.121932
0.11657
0.11015
0.102672
0.0941547
0.0846453
0.0742668
0.063293
0.0521959
0.0413768
0.0310926
0.0214732
0.0125488
0.00426101
0.0839481
0.0906718
0.0973169
0.10373
0.109773
0.115323
0.120271
0.124524
0.128003
0.130644
0.132392
0.133204
0.133046
0.131893
0.129723
0.126521
0.122271
0.116965
0.110593
0.103157
0.0946689
0.0851757
0.0747942
0.0637915
0.0526365
0.0417418
0.0313745
0.0216713
0.0126661
0.00430137
0.083659
0.0903861
0.097041
0.10347
0.109535
0.11511
0.120088
0.124374
0.127888
0.130565
0.132351
0.1332
0.13308
0.131963
0.129828
0.126658
0.12244
0.117161
0.110814
0.103398
0.0949258
0.085441
0.0750583
0.0640416
0.0528578
0.0419253
0.0315163
0.021771
0.012725
0.00432166
0.083659
0.0903861
0.097041
0.10347
0.109535
0.11511
0.120088
0.124374
0.127888
0.130565
0.132351
0.1332
0.13308
0.131963
0.129828
0.126658
0.12244
0.117161
0.110814
0.103398
0.0949258
0.085441
0.0750583
0.0640416
0.0528578
0.0419253
0.0315163
0.021771
0.012725
0.00432166
0.0839481
0.0906718
0.0973169
0.10373
0.109773
0.115323
0.120271
0.124524
0.128003
0.130644
0.132392
0.133204
0.133046
0.131893
0.129723
0.126521
0.122271
0.116965
0.110593
0.103157
0.0946689
0.0851757
0.0747942
0.0637915
0.0526365
0.0417418
0.0313745
0.0216713
0.0126661
0.00430137
0.0845267
0.091243
0.0978678
0.104249
0.110249
0.115747
0.120636
0.124823
0.128233
0.1308
0.132472
0.133209
0.132977
0.131751
0.129511
0.126243
0.121932
0.11657
0.11015
0.102672
0.0941547
0.0846453
0.0742668
0.063293
0.0521959
0.0413768
0.0310926
0.0214732
0.0125488
0.00426101
0.0853952
0.0920989
0.0986921
0.105025
0.110961
0.116381
0.12118
0.12527
0.128574
0.131032
0.132592
0.133215
0.132871
0.131536
0.129192
0.125824
0.121422
0.115976
0.109483
0.101946
0.0933844
0.0838523
0.0734805
0.0625517
0.0515421
0.0408357
0.0306749
0.0211797
0.0123752
0.0042012
0.0865538
0.0932376
0.0997864
0.106052
0.111902
0.117218
0.1219
0.12586
0.129026
0.131338
0.13275
0.133225
0.132732
0.131253
0.128769
0.125269
0.120744
0.115188
0.108598
0.100982
0.0923634
0.0828039
0.0724457
0.0615843
0.0506938
0.0401365
0.0301367
0.0208024
0.0121523
0.00412475
0.0880015
0.0946553
0.101144
0.107324
0.113063
0.118249
0.122782
0.126581
0.129575
0.13171
0.132939
0.13323
0.132556
0.130898
0.128243
0.12458
0.119902
0.114207
0.107495
0.09978
0.0910918
0.0815013
0.0711687
0.0604092
0.0496749
0.0393031
0.0294987
0.0203572
0.0118909
0.00403603
0.0897352
0.0963455
0.102756
0.108826
0.114428
0.119453
0.123806
0.127408
0.130194
0.132113
0.133123
0.133194
0.132302
0.130431
0.127571
0.123714
0.118856
0.112998
0.106146
0.0983182
0.0895534
0.0799346
0.0696417
0.0590103
0.0484658
0.0383159
0.0287437
0.0198306
0.0115815
0.00393091
0.0917482
0.0982986
0.104609
0.110542
0.115975
0.120804
0.12494
0.128308
0.130848
0.132512
0.133263
0.133076
0.131929
0.129812
0.126716
0.122637
0.117574
0.111534
0.104526
0.096576
0.0877323
0.0780922
0.0678574
0.0573839
0.0470644
0.037174
0.0278712
0.019222
0.0112237
0.00380903
0.0940317
0.100503
0.106684
0.112448
0.117678
0.122275
0.126154
0.129248
0.131501
0.13287
0.133325
0.132842
0.131407
0.129011
0.12565
0.121324
0.116036
0.109796
0.102621
0.0945438
0.0856232
0.0759742
0.065821
0.0555377
0.0454794
0.035885
0.0268871
0.0185355
0.0108197
0.00367101
0.0966325
0.102961
0.10897
0.114526
0.119513
0.123836
0.127419
0.130198
0.132125
0.133163
0.133286
0.132476
0.130722
0.128021
0.124372
0.119779
0.11425
0.107799
0.100451
0.0922459
0.0832563
0.0736161
0.0635718
0.0535109
0.0437464
0.034479
0.0258148
0.0177876
0.0103793
0.0035201
)
;

boundaryField
{
    walls
    {
        type            fixedValue;
        value           uniform 1e-10;
    }
    inlet
    {
        type            cyclic;
    }
    outlet
    {
        type            cyclic;
    }
}


// ************************************************************************* //
