/*--------------------------------*- C++ -*----------------------------------*\
| =========                 |                                                 |
| \\      /  F ield         | OpenFOAM: The Open Source CFD Toolbox           |
|  \\    /   O peration     | Version:  2306                                  |
|   \\  /    A nd           | Website:  www.openfoam.com                      |
|    \\/     M anipulation  |                                                 |
\*---------------------------------------------------------------------------*/
FoamFile
{
    version     2.0;
    format      ascii;
    arch        "LSB;label=32;scalar=64";
    class       volScalarField;
    location    "4320";
    object      k;
}
// * * * * * * * * * * * * * * * * * * * * * * * * * * * * * * * * * * * * * //

dimensions      [0 2 -2 0 0 0 0];

internalField   nonuniform List<scalar> 
2800
(
0.0241881
0.023473
0.0228343
0.0222785
0.0218054
0.0214139
0.0211026
0.0208703
0.020716
0.020639
0.020639
0.020716
0.0208703
0.0211026
0.0214139
0.0218054
0.0222785
0.0228343
0.023473
0.0241881
0.0234694
0.0225918
0.0218297
0.0211721
0.0206141
0.0201529
0.0197865
0.0195133
0.0193319
0.0192414
0.0192414
0.0193319
0.0195133
0.0197865
0.0201529
0.0206141
0.0211721
0.0218297
0.0225918
0.0234694
0.0228302
0.0218278
0.020957
0.0202098
0.0195792
0.0190601
0.0186488
0.0183428
0.0181399
0.0180388
0.0180388
0.0181399
0.0183428
0.0186488
0.0190601
0.0195792
0.0202098
0.020957
0.0218278
0.0228302
0.0222747
0.0211696
0.0202087
0.0193863
0.0186948
0.0181279
0.0176804
0.0173484
0.0171287
0.0170194
0.0170194
0.0171287
0.0173484
0.0176804
0.0181279
0.0186948
0.0193863
0.0202087
0.0211696
0.0222747
0.021802
0.0206115
0.0195776
0.0186941
0.0179535
0.0173483
0.0168723
0.01652
0.0162875
0.016172
0.016172
0.0162875
0.01652
0.0168723
0.0173483
0.0179535
0.0186941
0.0195776
0.0206115
0.021802
0.021411
0.0201504
0.0190583
0.0181269
0.0173479
0.0167132
0.0162154
0.0158479
0.0156059
0.0154858
0.0154858
0.0156059
0.0158479
0.0162154
0.0167132
0.0173479
0.0181269
0.0190583
0.0201504
0.021411
0.0211001
0.0197843
0.0186471
0.0176792
0.0168716
0.0162151
0.0157013
0.015323
0.0150741
0.0149507
0.0149507
0.0150741
0.015323
0.0157013
0.0162151
0.0168716
0.0176792
0.0186471
0.0197843
0.0211001
0.0208682
0.0195113
0.0183411
0.0173471
0.0165192
0.0158475
0.0153227
0.014937
0.0146836
0.0145581
0.0145581
0.0146836
0.014937
0.0153227
0.0158475
0.0165192
0.0173471
0.0183411
0.0195113
0.0208682
0.0207141
0.0193301
0.0181383
0.0171274
0.0162866
0.0156053
0.0150738
0.0146834
0.0144273
0.0143005
0.0143005
0.0144273
0.0146834
0.0150738
0.0156053
0.0162866
0.0171274
0.0181383
0.0193301
0.0207141
0.0206373
0.0192397
0.0180373
0.0170181
0.016171
0.0154851
0.0149504
0.0145579
0.0143004
0.014173
0.014173
0.0143004
0.0145579
0.0149504
0.0154851
0.016171
0.0170181
0.0180373
0.0192397
0.0206373
0.0206373
0.0192397
0.0180373
0.0170181
0.016171
0.0154851
0.0149504
0.0145579
0.0143004
0.014173
0.014173
0.0143004
0.0145579
0.0149504
0.0154851
0.016171
0.0170181
0.0180373
0.0192397
0.0206373
0.0207141
0.0193301
0.0181383
0.0171274
0.0162866
0.0156053
0.0150738
0.0146834
0.0144273
0.0143005
0.0143005
0.0144273
0.0146834
0.0150738
0.0156053
0.0162866
0.0171274
0.0181383
0.0193301
0.0207141
0.0208682
0.0195113
0.0183411
0.0173471
0.0165192
0.0158475
0.0153227
0.014937
0.0146836
0.0145581
0.0145581
0.0146836
0.014937
0.0153227
0.0158475
0.0165192
0.0173471
0.0183411
0.0195113
0.0208682
0.0211001
0.0197843
0.0186471
0.0176792
0.0168716
0.0162151
0.0157013
0.015323
0.0150741
0.0149507
0.0149507
0.0150741
0.015323
0.0157013
0.0162151
0.0168716
0.0176792
0.0186471
0.0197843
0.0211001
0.021411
0.0201504
0.0190583
0.0181269
0.0173479
0.0167132
0.0162154
0.0158479
0.0156059
0.0154858
0.0154858
0.0156059
0.0158479
0.0162154
0.0167132
0.0173479
0.0181269
0.0190583
0.0201504
0.021411
0.021802
0.0206115
0.0195776
0.0186941
0.0179535
0.0173483
0.0168723
0.01652
0.0162875
0.016172
0.016172
0.0162875
0.01652
0.0168723
0.0173483
0.0179535
0.0186941
0.0195776
0.0206115
0.021802
0.0222747
0.0211696
0.0202087
0.0193863
0.0186948
0.0181279
0.0176804
0.0173484
0.0171287
0.0170194
0.0170194
0.0171287
0.0173484
0.0176804
0.0181279
0.0186948
0.0193863
0.0202087
0.0211696
0.0222747
0.0228302
0.0218278
0.020957
0.0202098
0.0195792
0.0190601
0.0186488
0.0183428
0.0181399
0.0180388
0.0180388
0.0181399
0.0183428
0.0186488
0.0190601
0.0195792
0.0202098
0.020957
0.0218278
0.0228302
0.0234694
0.0225918
0.0218297
0.0211721
0.0206141
0.0201529
0.0197865
0.0195133
0.0193319
0.0192414
0.0192414
0.0193319
0.0195133
0.0197865
0.0201529
0.0206141
0.0211721
0.0218297
0.0225918
0.0234694
0.0241881
0.023473
0.0228343
0.0222785
0.0218054
0.0214139
0.0211026
0.0208703
0.020716
0.020639
0.020639
0.020716
0.0208703
0.0211026
0.0214139
0.0218054
0.0222785
0.0228343
0.023473
0.0241881
0.0253406
0.0269768
0.02863
0.0302888
0.0319454
0.0335949
0.0352333
0.036856
0.0384565
0.0400244
0.041544
0.0429905
0.0443267
0.0454966
0.0464168
0.0469651
0.0469652
0.046174
0.0442834
0.0409839
0.0361841
0.0303854
0.0247753
0.0196533
0.0151231
0.0112313
0.0079546
0.00521263
0.0028994
0.000913452
0.0246737
0.0263121
0.0279656
0.029626
0.0312865
0.0329421
0.034589
0.0362233
0.0378394
0.0394289
0.0409781
0.0424659
0.0438595
0.0451095
0.0461415
0.0468448
0.047058
0.0465524
0.045026
0.0421408
0.0376939
0.0319972
0.026155
0.0207703
0.0159822
0.0118554
0.00838041
0.00548015
0.00304281
0.000957333
0.0241079
0.0257389
0.0273906
0.0290519
0.0307153
0.0323757
0.0340295
0.035673
0.0373015
0.0389077
0.0404798
0.041999
0.0434362
0.0447471
0.045864
0.046686
0.0470634
0.046781
0.0455447
0.0430023
0.0388743
0.033313
0.0273019
0.0217108
0.0167113
0.0123862
0.00874142
0.00570554
0.00316281
0.000993831
0.0236215
0.0252462
0.0268952
0.0285565
0.0302216
0.0318852
0.0335435
0.035193
0.0368296
0.0384469
0.0400344
0.0415755
0.0430439
0.0443992
0.0455795
0.0464915
0.0469956
0.0468877
0.0458829
0.0436224
0.0397747
0.034363
0.0282362
0.0224889
0.0173206
0.0128316
0.00904404
0.00589355
0.00326233
0.00102395
0.0232094
0.0248288
0.0264753
0.0281361
0.0298022
0.0314677
0.0331287
0.0347819
0.0364235
0.0380478
0.0396454
0.0412013
0.0426915
0.0440789
0.0453063
0.0462863
0.0468875
0.0469155
0.0460937
0.0440614
0.0404519
0.0351875
0.0289851
0.0231223
0.017822
0.0132
0.00929418
0.00604834
0.00334385
0.00104852
0.022869
0.0244839
0.0261284
0.0277888
0.0294557
0.031123
0.0327863
0.0344425
0.0360881
0.0377176
0.0393227
0.0408895
0.0423958
0.043807
0.0450693
0.0461003
0.0467753
0.0469076
0.0462282
0.0443773
0.0409641
0.0358338
0.0295829
0.0236355
0.0182323
0.0135031
0.00950022
0.00617555
0.00341061
0.00106857
0.0225985
0.0242098
0.0258528
0.0275132
0.0291814
0.0308507
0.032517
0.0341771
0.0358275
0.0374636
0.0390774
0.0406561
0.0421789
0.0436131
0.0449077
0.0459843
0.0467233
0.046945
0.0463875
0.0446946
0.0414621
0.0364776
0.0302393
0.0241834
0.0186612
0.0138172
0.0097136
0.00630779
0.00348036
0.00108963
0.0223967
0.0240053
0.0256473
0.0273081
0.0289777
0.0306494
0.0323188
0.0339829
0.0356384
0.0372807
0.0389025
0.0404916
0.0420282
0.0434808
0.0448005
0.0459118
0.0466988
0.0469873
0.0465212
0.0449482
0.0418564
0.0369934
0.0307835
0.0246361
0.0190143
0.0140755
0.00988908
0.00641656
0.00353774
0.00110695
0.0222627
0.0238695
0.0255109
0.0271722
0.028843
0.0305166
0.0321887
0.0338559
0.0355152
0.0371621
0.0387895
0.0403856
0.0419311
0.0433956
0.0447313
0.0458645
0.0466822
0.0470135
0.0466064
0.0451112
0.0421121
0.0373317
0.0311445
0.0249377
0.0192504
0.0142485
0.0100066
0.00648933
0.00357608
0.0011185
0.0221958
0.0238017
0.0254429
0.0271044
0.028776
0.0304508
0.0321242
0.0337931
0.0354543
0.0371035
0.0387337
0.0403332
0.0418831
0.0433533
0.0446967
0.0458406
0.0466732
0.0470253
0.046647
0.0451902
0.042237
0.0374981
0.0313235
0.0250878
0.019368
0.0143349
0.0100653
0.00652563
0.00359518
0.00112426
0.0221958
0.0238017
0.0254429
0.0271044
0.028776
0.0304508
0.0321242
0.0337931
0.0354543
0.0371035
0.0387337
0.0403332
0.0418831
0.0433533
0.0446967
0.0458406
0.0466732
0.0470253
0.046647
0.0451902
0.042237
0.0374981
0.0313235
0.0250878
0.019368
0.0143349
0.0100653
0.00652563
0.00359518
0.00112426
0.0222627
0.0238695
0.0255109
0.0271722
0.028843
0.0305166
0.0321887
0.0338559
0.0355152
0.0371621
0.0387895
0.0403856
0.0419311
0.0433956
0.0447313
0.0458645
0.0466822
0.0470135
0.0466064
0.0451112
0.0421121
0.0373317
0.0311445
0.0249377
0.0192504
0.0142485
0.0100066
0.00648933
0.00357608
0.0011185
0.0223967
0.0240053
0.0256473
0.0273081
0.0289777
0.0306494
0.0323188
0.0339829
0.0356384
0.0372807
0.0389025
0.0404916
0.0420282
0.0434808
0.0448005
0.0459118
0.0466988
0.0469873
0.0465212
0.0449482
0.0418564
0.0369934
0.0307835
0.0246361
0.0190143
0.0140755
0.00988908
0.00641656
0.00353774
0.00110695
0.0225985
0.0242098
0.0258528
0.0275132
0.0291814
0.0308507
0.032517
0.0341771
0.0358275
0.0374636
0.0390774
0.0406561
0.0421789
0.0436131
0.0449077
0.0459843
0.0467233
0.046945
0.0463875
0.0446946
0.0414621
0.0364776
0.0302393
0.0241834
0.0186612
0.0138172
0.0097136
0.00630779
0.00348036
0.00108963
0.022869
0.0244839
0.0261284
0.0277888
0.0294557
0.031123
0.0327863
0.0344425
0.0360881
0.0377176
0.0393227
0.0408895
0.0423958
0.043807
0.0450693
0.0461003
0.0467753
0.0469076
0.0462282
0.0443773
0.0409641
0.0358338
0.0295829
0.0236355
0.0182323
0.0135031
0.00950022
0.00617555
0.00341061
0.00106857
0.0232094
0.0248288
0.0264753
0.0281361
0.0298022
0.0314677
0.0331287
0.0347819
0.0364235
0.0380478
0.0396454
0.0412013
0.0426915
0.0440789
0.0453063
0.0462863
0.0468875
0.0469155
0.0460937
0.0440614
0.0404519
0.0351875
0.028985
0.0231223
0.017822
0.0132
0.00929418
0.00604834
0.00334385
0.00104852
0.0236215
0.0252462
0.0268952
0.0285565
0.0302216
0.0318852
0.0335435
0.035193
0.0368296
0.0384469
0.0400344
0.0415755
0.0430439
0.0443992
0.0455795
0.0464915
0.0469956
0.0468877
0.0458829
0.0436224
0.0397747
0.034363
0.0282362
0.0224889
0.0173206
0.0128316
0.00904404
0.00589355
0.00326233
0.00102395
0.0241079
0.0257389
0.0273906
0.0290519
0.0307153
0.0323757
0.0340295
0.035673
0.0373015
0.0389077
0.0404798
0.041999
0.0434362
0.0447471
0.045864
0.046686
0.0470634
0.046781
0.0455447
0.0430023
0.0388743
0.033313
0.0273019
0.0217108
0.0167113
0.0123862
0.00874142
0.00570554
0.00316281
0.000993831
0.0246737
0.0263121
0.0279656
0.029626
0.0312865
0.0329421
0.034589
0.0362233
0.0378394
0.0394289
0.0409781
0.0424659
0.0438595
0.0451095
0.0461415
0.0468448
0.047058
0.0465524
0.045026
0.0421408
0.0376939
0.0319972
0.026155
0.0207703
0.0159822
0.0118554
0.00838041
0.00548015
0.00304281
0.000957333
0.0253406
0.0269768
0.02863
0.0302888
0.0319454
0.0335949
0.0352333
0.036856
0.0384565
0.0400244
0.0415439
0.0429905
0.0443267
0.0454966
0.0464168
0.0469651
0.0469652
0.046174
0.0442834
0.0409839
0.0361841
0.0303854
0.0247753
0.0196533
0.0151231
0.0112313
0.0079546
0.00521263
0.0028994
0.000913452
0.0253506
0.0269864
0.0286403
0.0302999
0.0319573
0.0336074
0.0352463
0.0368693
0.0384699
0.040038
0.0415575
0.0430041
0.0443404
0.0455106
0.0464315
0.0469806
0.0469821
0.0461927
0.0443042
0.041007
0.0362088
0.03041
0.0247977
0.0196726
0.0151389
0.0112437
0.00796376
0.00521881
0.00290293
0.000914585
0.0246782
0.0263172
0.0279709
0.0296317
0.0312924
0.0329482
0.0345952
0.0362296
0.0378458
0.0394354
0.0409847
0.0424726
0.0438663
0.0451163
0.046148
0.0468507
0.0470627
0.046555
0.0450254
0.042136
0.0376848
0.031986
0.0261451
0.0207622
0.0159759
0.0118508
0.0083773
0.00547821
0.00304177
0.000957006
0.0241118
0.0257427
0.0273942
0.0290556
0.0307192
0.0323799
0.034034
0.0356778
0.0373068
0.0389134
0.0404858
0.0420053
0.0434428
0.0447536
0.0458701
0.0466911
0.0470669
0.0467817
0.0455416
0.0429941
0.0388609
0.0332968
0.0272874
0.0216988
0.0167018
0.0123793
0.00873673
0.00570262
0.00316125
0.00099335
0.023625
0.0252492
0.0268981
0.0285593
0.0302245
0.0318883
0.0335469
0.0351968
0.0368339
0.0384516
0.0400396
0.041581
0.0430496
0.0444049
0.0455849
0.046496
0.0469986
0.0468883
0.04588
0.0436149
0.0397622
0.0343475
0.0282222
0.0224771
0.0173113
0.0128248
0.00903938
0.00589067
0.00326081
0.00102348
0.0232125
0.0248314
0.0264776
0.0281383
0.0298044
0.03147
0.0331312
0.0347847
0.0364267
0.0380513
0.0396492
0.0412054
0.0426958
0.0440833
0.0453104
0.0462897
0.0468898
0.0469159
0.0460913
0.0440552
0.0404415
0.0351742
0.0289728
0.0231119
0.0178137
0.0131939
0.00929003
0.00604577
0.0033425
0.0010481
0.0228717
0.0244861
0.0261303
0.0277905
0.0294573
0.0311245
0.032788
0.0344444
0.0360901
0.0377199
0.0393252
0.0408921
0.0423986
0.0438098
0.0450719
0.0461025
0.0467766
0.0469075
0.046226
0.0443721
0.0409555
0.0358227
0.0295726
0.0236265
0.0182251
0.0134977
0.00949655
0.00617327
0.0034094
0.0010682
0.0226009
0.0242117
0.0258543
0.0275145
0.0291825
0.0308518
0.0325181
0.0341782
0.0358288
0.037465
0.0390789
0.0406577
0.0421806
0.0436147
0.0449092
0.0459854
0.0467236
0.0469441
0.0463848
0.0446894
0.0414538
0.0364666
0.0302276
0.0241737
0.0186535
0.0138116
0.00970976
0.00630539
0.00347908
0.00108923
0.0223989
0.024007
0.0256485
0.0273091
0.0289785
0.0306501
0.0323195
0.0339837
0.0356392
0.0372817
0.0389036
0.0404928
0.0420294
0.043482
0.0448017
0.0459126
0.0466992
0.0469869
0.0465197
0.044945
0.0418511
0.0369863
0.0307758
0.0246296
0.0190092
0.0140717
0.00988648
0.00641494
0.00353688
0.00110668
0.0222647
0.023871
0.0255119
0.0271729
0.0288436
0.0305171
0.0321891
0.0338564
0.0355157
0.0371627
0.0387902
0.0403864
0.041932
0.0433965
0.0447322
0.0458653
0.0466828
0.0470135
0.0466057
0.0451095
0.042109
0.0373273
0.0311396
0.0249336
0.0192471
0.0142461
0.010005
0.00648831
0.00357553
0.00111833
0.0221978
0.0238031
0.0254438
0.0271051
0.0287765
0.0304511
0.0321245
0.0337934
0.0354547
0.037104
0.0387343
0.0403339
0.0418838
0.043354
0.0446975
0.0458413
0.0466737
0.0470255
0.0466467
0.0451892
0.042235
0.0374952
0.0313201
0.0250849
0.0193658
0.0143332
0.0100641
0.00652491
0.00359479
0.00112413
0.0221978
0.0238031
0.0254438
0.0271051
0.0287765
0.0304511
0.0321245
0.0337934
0.0354547
0.037104
0.0387343
0.0403339
0.0418838
0.043354
0.0446975
0.0458413
0.0466737
0.0470255
0.0466467
0.0451892
0.042235
0.0374952
0.0313201
0.0250849
0.0193658
0.0143332
0.0100641
0.00652491
0.00359479
0.00112413
0.0222647
0.023871
0.0255119
0.0271729
0.0288436
0.0305171
0.0321891
0.0338564
0.0355157
0.0371627
0.0387902
0.0403864
0.041932
0.0433965
0.0447322
0.0458653
0.0466828
0.0470135
0.0466057
0.0451095
0.042109
0.0373273
0.0311396
0.0249336
0.0192471
0.0142461
0.010005
0.00648831
0.00357553
0.00111833
0.0223989
0.024007
0.0256485
0.0273091
0.0289785
0.0306501
0.0323195
0.0339837
0.0356392
0.0372817
0.0389036
0.0404928
0.0420294
0.043482
0.0448017
0.0459126
0.0466992
0.0469869
0.0465197
0.044945
0.0418511
0.0369863
0.0307758
0.0246296
0.0190092
0.0140717
0.00988648
0.00641494
0.00353688
0.00110668
0.0226009
0.0242117
0.0258543
0.0275145
0.0291825
0.0308518
0.0325181
0.0341782
0.0358288
0.037465
0.0390789
0.0406577
0.0421806
0.0436147
0.0449092
0.0459854
0.0467236
0.0469441
0.0463848
0.0446894
0.0414538
0.0364666
0.0302276
0.0241737
0.0186535
0.0138116
0.00970976
0.00630539
0.00347908
0.00108923
0.0228717
0.0244861
0.0261303
0.0277905
0.0294573
0.0311245
0.032788
0.0344444
0.0360901
0.0377199
0.0393252
0.0408921
0.0423986
0.0438098
0.0450719
0.0461025
0.0467766
0.0469075
0.046226
0.0443721
0.0409555
0.0358227
0.0295726
0.0236265
0.0182251
0.0134978
0.00949655
0.00617327
0.0034094
0.0010682
0.0232125
0.0248314
0.0264776
0.0281383
0.0298044
0.03147
0.0331312
0.0347848
0.0364267
0.0380513
0.0396492
0.0412054
0.0426958
0.0440833
0.0453104
0.0462897
0.0468898
0.0469159
0.0460913
0.0440552
0.0404415
0.0351742
0.0289728
0.0231119
0.0178137
0.0131939
0.00929003
0.00604577
0.0033425
0.0010481
0.023625
0.0252492
0.0268981
0.0285593
0.0302245
0.0318883
0.0335469
0.0351968
0.0368339
0.0384516
0.0400396
0.041581
0.0430496
0.0444049
0.0455849
0.046496
0.0469986
0.0468883
0.04588
0.0436149
0.0397622
0.0343475
0.0282222
0.0224771
0.0173113
0.0128248
0.00903938
0.00589067
0.00326081
0.00102348
0.0241118
0.0257427
0.0273942
0.0290556
0.0307192
0.0323799
0.034034
0.0356778
0.0373068
0.0389134
0.0404858
0.0420053
0.0434428
0.0447536
0.0458701
0.0466911
0.0470669
0.0467817
0.0455416
0.0429941
0.0388609
0.0332968
0.0272874
0.0216988
0.0167018
0.0123793
0.00873673
0.00570262
0.00316125
0.00099335
0.0246782
0.0263172
0.0279709
0.0296317
0.0312924
0.0329482
0.0345952
0.0362296
0.0378458
0.0394354
0.0409847
0.0424726
0.0438663
0.0451163
0.046148
0.0468507
0.0470627
0.046555
0.0450254
0.042136
0.0376848
0.031986
0.0261451
0.0207622
0.0159759
0.0118508
0.0083773
0.00547821
0.00304177
0.000957006
0.0253506
0.0269864
0.0286403
0.0302999
0.0319573
0.0336074
0.0352463
0.0368693
0.0384699
0.040038
0.0415575
0.0430041
0.0443404
0.0455106
0.0464315
0.0469806
0.0469821
0.0461927
0.0443042
0.041007
0.0362088
0.03041
0.0247977
0.0196726
0.0151389
0.0112437
0.00796376
0.00521881
0.00290293
0.000914585
0.0253406
0.0269768
0.02863
0.0302888
0.0319454
0.0335949
0.0352333
0.036856
0.0384565
0.0400244
0.041544
0.0429905
0.0443267
0.0454966
0.0464168
0.0469651
0.0469652
0.046174
0.0442834
0.0409839
0.0361841
0.0303854
0.0247753
0.0196533
0.0151231
0.0112313
0.0079546
0.00521263
0.0028994
0.000913452
0.0246737
0.0263121
0.0279656
0.029626
0.0312865
0.0329421
0.034589
0.0362233
0.0378394
0.0394289
0.0409781
0.0424659
0.0438595
0.0451095
0.0461415
0.0468448
0.047058
0.0465524
0.045026
0.0421408
0.0376939
0.0319972
0.026155
0.0207703
0.0159822
0.0118554
0.00838041
0.00548015
0.00304281
0.000957333
0.0241079
0.0257389
0.0273906
0.0290519
0.0307153
0.0323757
0.0340295
0.035673
0.0373015
0.0389077
0.0404798
0.041999
0.0434362
0.0447471
0.045864
0.046686
0.0470634
0.046781
0.0455447
0.0430023
0.0388743
0.033313
0.0273019
0.0217108
0.0167113
0.0123862
0.00874142
0.00570554
0.00316281
0.000993831
0.0236215
0.0252462
0.0268952
0.0285565
0.0302216
0.0318852
0.0335435
0.035193
0.0368296
0.0384469
0.0400344
0.0415755
0.0430439
0.0443992
0.0455795
0.0464915
0.0469956
0.0468877
0.0458829
0.0436224
0.0397747
0.034363
0.0282362
0.0224889
0.0173206
0.0128316
0.00904404
0.00589355
0.00326233
0.00102395
0.0232094
0.0248288
0.0264753
0.0281361
0.0298022
0.0314677
0.0331287
0.0347819
0.0364235
0.0380478
0.0396454
0.0412013
0.0426915
0.0440789
0.0453063
0.0462863
0.0468875
0.0469155
0.0460937
0.0440614
0.0404519
0.0351875
0.0289851
0.0231223
0.017822
0.0132
0.00929418
0.00604834
0.00334385
0.00104852
0.022869
0.0244839
0.0261284
0.0277888
0.0294557
0.031123
0.0327863
0.0344425
0.0360881
0.0377176
0.0393227
0.0408895
0.0423958
0.043807
0.0450693
0.0461003
0.0467753
0.0469076
0.0462282
0.0443773
0.0409641
0.0358338
0.0295829
0.0236355
0.0182323
0.0135031
0.00950022
0.00617555
0.00341061
0.00106857
0.0225985
0.0242098
0.0258528
0.0275132
0.0291814
0.0308507
0.032517
0.0341771
0.0358275
0.0374636
0.0390774
0.0406561
0.0421789
0.0436131
0.0449077
0.0459843
0.0467233
0.046945
0.0463875
0.0446946
0.0414621
0.0364776
0.0302393
0.0241834
0.0186612
0.0138172
0.0097136
0.00630779
0.00348036
0.00108963
0.0223967
0.0240053
0.0256473
0.0273081
0.0289777
0.0306494
0.0323188
0.0339829
0.0356384
0.0372807
0.0389025
0.0404916
0.0420282
0.0434808
0.0448005
0.0459118
0.0466988
0.0469873
0.0465212
0.0449482
0.0418564
0.0369934
0.0307835
0.0246361
0.0190143
0.0140755
0.00988908
0.00641656
0.00353774
0.00110695
0.0222627
0.0238695
0.0255109
0.0271722
0.028843
0.0305167
0.0321887
0.0338559
0.0355152
0.0371621
0.0387895
0.0403856
0.0419311
0.0433956
0.0447313
0.0458645
0.0466822
0.0470135
0.0466064
0.0451112
0.0421121
0.0373317
0.0311445
0.0249377
0.0192504
0.0142485
0.0100066
0.00648933
0.00357608
0.0011185
0.0221958
0.0238017
0.0254429
0.0271045
0.028776
0.0304508
0.0321242
0.0337931
0.0354543
0.0371035
0.0387337
0.0403332
0.0418831
0.0433533
0.0446967
0.0458406
0.0466732
0.0470253
0.046647
0.0451902
0.042237
0.0374982
0.0313235
0.0250878
0.019368
0.0143349
0.0100653
0.00652563
0.00359518
0.00112426
0.0221958
0.0238017
0.0254429
0.0271045
0.028776
0.0304508
0.0321242
0.0337931
0.0354543
0.0371035
0.0387337
0.0403332
0.0418831
0.0433533
0.0446967
0.0458406
0.0466732
0.0470253
0.046647
0.0451902
0.042237
0.0374982
0.0313235
0.0250878
0.019368
0.0143349
0.0100653
0.00652563
0.00359518
0.00112426
0.0222627
0.0238695
0.0255109
0.0271722
0.028843
0.0305167
0.0321887
0.0338559
0.0355152
0.0371621
0.0387895
0.0403856
0.0419311
0.0433956
0.0447313
0.0458645
0.0466822
0.0470135
0.0466064
0.0451112
0.0421121
0.0373317
0.0311445
0.0249377
0.0192504
0.0142485
0.0100066
0.00648933
0.00357608
0.0011185
0.0223967
0.0240053
0.0256473
0.0273081
0.0289777
0.0306494
0.0323188
0.0339829
0.0356384
0.0372807
0.0389025
0.0404916
0.0420282
0.0434808
0.0448005
0.0459118
0.0466988
0.0469873
0.0465212
0.0449482
0.0418564
0.0369934
0.0307835
0.0246361
0.0190143
0.0140755
0.00988908
0.00641656
0.00353775
0.00110695
0.0225985
0.0242098
0.0258528
0.0275132
0.0291814
0.0308507
0.032517
0.0341771
0.0358275
0.0374636
0.0390774
0.0406561
0.0421789
0.0436131
0.0449077
0.0459843
0.0467233
0.046945
0.0463875
0.0446946
0.0414621
0.0364776
0.0302393
0.0241834
0.0186612
0.0138172
0.0097136
0.00630779
0.00348036
0.00108963
0.022869
0.0244839
0.0261284
0.0277888
0.0294557
0.031123
0.0327863
0.0344425
0.0360881
0.0377176
0.0393227
0.0408895
0.0423958
0.043807
0.0450693
0.0461003
0.0467753
0.0469076
0.0462282
0.0443773
0.0409641
0.0358338
0.0295829
0.0236355
0.0182323
0.0135031
0.00950022
0.00617555
0.00341061
0.00106857
0.0232094
0.0248288
0.0264753
0.0281361
0.0298022
0.0314677
0.0331287
0.0347819
0.0364235
0.0380478
0.0396454
0.0412013
0.0426915
0.0440789
0.0453063
0.0462863
0.0468875
0.0469155
0.0460937
0.0440614
0.0404519
0.0351875
0.0289851
0.0231223
0.017822
0.0132
0.00929418
0.00604834
0.00334385
0.00104852
0.0236215
0.0252462
0.0268952
0.0285565
0.0302216
0.0318852
0.0335435
0.035193
0.0368296
0.0384469
0.0400344
0.0415755
0.0430439
0.0443992
0.0455795
0.0464915
0.0469956
0.0468877
0.0458829
0.0436224
0.0397747
0.034363
0.0282362
0.0224889
0.0173206
0.0128316
0.00904404
0.00589355
0.00326233
0.00102395
0.0241079
0.0257389
0.0273906
0.0290519
0.0307153
0.0323757
0.0340295
0.035673
0.0373015
0.0389077
0.0404798
0.041999
0.0434362
0.0447471
0.045864
0.046686
0.0470634
0.046781
0.0455447
0.0430023
0.0388743
0.033313
0.0273019
0.0217108
0.0167113
0.0123862
0.00874142
0.00570554
0.00316281
0.000993831
0.0246737
0.0263121
0.0279656
0.029626
0.0312865
0.0329421
0.034589
0.0362233
0.0378394
0.0394289
0.0409781
0.0424659
0.0438595
0.0451095
0.0461415
0.0468448
0.047058
0.0465524
0.045026
0.0421408
0.0376939
0.0319972
0.026155
0.0207703
0.0159822
0.0118554
0.00838041
0.00548015
0.00304281
0.000957333
0.0253406
0.0269768
0.02863
0.0302888
0.0319454
0.0335949
0.0352333
0.036856
0.0384565
0.0400244
0.041544
0.0429905
0.0443267
0.0454966
0.0464168
0.0469651
0.0469652
0.046174
0.0442834
0.0409839
0.0361841
0.0303854
0.0247753
0.0196533
0.0151231
0.0112313
0.0079546
0.00521263
0.0028994
0.000913452
0.0253506
0.0269864
0.0286403
0.0302999
0.0319573
0.0336075
0.0352463
0.0368693
0.0384699
0.040038
0.0415575
0.0430041
0.0443404
0.0455106
0.0464315
0.0469806
0.0469821
0.0461927
0.0443042
0.041007
0.0362088
0.03041
0.0247977
0.0196726
0.0151389
0.0112437
0.00796376
0.00521881
0.00290293
0.000914586
0.0246782
0.0263172
0.0279709
0.0296317
0.0312924
0.0329482
0.0345952
0.0362296
0.0378458
0.0394354
0.0409847
0.0424726
0.0438663
0.0451163
0.046148
0.0468507
0.0470627
0.046555
0.0450254
0.042136
0.0376848
0.031986
0.0261451
0.0207622
0.0159759
0.0118508
0.0083773
0.00547821
0.00304177
0.000957006
0.0241118
0.0257427
0.0273942
0.0290556
0.0307192
0.0323799
0.034034
0.0356778
0.0373068
0.0389134
0.0404858
0.0420053
0.0434428
0.0447536
0.0458701
0.0466911
0.0470669
0.0467817
0.0455416
0.0429941
0.0388609
0.0332968
0.0272874
0.0216988
0.0167018
0.0123793
0.00873673
0.00570262
0.00316125
0.00099335
0.023625
0.0252492
0.0268981
0.0285593
0.0302245
0.0318883
0.0335469
0.0351968
0.0368339
0.0384516
0.0400396
0.041581
0.0430496
0.0444049
0.0455849
0.046496
0.0469986
0.0468883
0.04588
0.0436149
0.0397622
0.0343475
0.0282222
0.0224771
0.0173113
0.0128248
0.00903938
0.00589067
0.00326081
0.00102348
0.0232125
0.0248314
0.0264777
0.0281383
0.0298044
0.03147
0.0331312
0.0347848
0.0364267
0.0380513
0.0396492
0.0412054
0.0426958
0.0440833
0.0453104
0.0462897
0.0468898
0.0469159
0.0460913
0.0440552
0.0404415
0.0351742
0.0289728
0.0231119
0.0178137
0.0131939
0.00929003
0.00604577
0.0033425
0.0010481
0.0228717
0.0244861
0.0261303
0.0277905
0.0294573
0.0311245
0.032788
0.0344444
0.0360901
0.0377199
0.0393252
0.0408921
0.0423986
0.0438098
0.0450719
0.0461025
0.0467766
0.0469075
0.046226
0.0443721
0.0409555
0.0358227
0.0295726
0.0236265
0.0182251
0.0134978
0.00949655
0.00617327
0.0034094
0.0010682
0.0226009
0.0242117
0.0258543
0.0275145
0.0291825
0.0308518
0.0325181
0.0341783
0.0358288
0.037465
0.0390789
0.0406577
0.0421806
0.0436147
0.0449092
0.0459854
0.0467236
0.0469441
0.0463848
0.0446894
0.0414538
0.0364666
0.0302276
0.0241737
0.0186535
0.0138116
0.00970976
0.00630539
0.00347908
0.00108923
0.0223989
0.024007
0.0256485
0.0273091
0.0289785
0.0306501
0.0323195
0.0339837
0.0356392
0.0372817
0.0389036
0.0404928
0.0420294
0.043482
0.0448017
0.0459126
0.0466992
0.0469869
0.0465197
0.044945
0.0418511
0.0369863
0.0307758
0.0246296
0.0190092
0.0140717
0.00988648
0.00641494
0.00353688
0.00110668
0.0222647
0.023871
0.0255119
0.0271729
0.0288436
0.0305171
0.0321891
0.0338564
0.0355157
0.0371627
0.0387902
0.0403864
0.041932
0.0433965
0.0447322
0.0458653
0.0466828
0.0470135
0.0466057
0.0451095
0.042109
0.0373273
0.0311396
0.0249336
0.0192471
0.0142461
0.010005
0.00648831
0.00357553
0.00111833
0.0221978
0.0238031
0.0254438
0.0271051
0.0287765
0.0304511
0.0321245
0.0337934
0.0354547
0.037104
0.0387343
0.0403339
0.0418838
0.043354
0.0446975
0.0458413
0.0466737
0.0470255
0.0466467
0.0451892
0.042235
0.0374952
0.0313201
0.0250849
0.0193658
0.0143332
0.0100641
0.00652491
0.00359479
0.00112413
0.0221978
0.0238031
0.0254438
0.0271051
0.0287765
0.0304511
0.0321245
0.0337934
0.0354547
0.037104
0.0387343
0.0403339
0.0418838
0.043354
0.0446975
0.0458413
0.0466737
0.0470255
0.0466467
0.0451892
0.042235
0.0374952
0.0313201
0.0250849
0.0193658
0.0143332
0.0100641
0.00652491
0.00359479
0.00112413
0.0222647
0.023871
0.0255119
0.0271729
0.0288436
0.0305171
0.0321891
0.0338564
0.0355157
0.0371627
0.0387902
0.0403864
0.041932
0.0433965
0.0447322
0.0458653
0.0466828
0.0470135
0.0466057
0.0451095
0.042109
0.0373273
0.0311396
0.0249336
0.0192471
0.0142461
0.010005
0.00648831
0.00357553
0.00111833
0.0223989
0.024007
0.0256485
0.0273091
0.0289785
0.0306501
0.0323195
0.0339837
0.0356392
0.0372817
0.0389036
0.0404928
0.0420294
0.043482
0.0448017
0.0459126
0.0466992
0.0469869
0.0465197
0.044945
0.0418511
0.0369863
0.0307758
0.0246296
0.0190092
0.0140717
0.00988648
0.00641494
0.00353688
0.00110668
0.0226009
0.0242117
0.0258543
0.0275145
0.0291825
0.0308518
0.0325181
0.0341783
0.0358288
0.037465
0.0390789
0.0406577
0.0421806
0.0436147
0.0449092
0.0459854
0.0467236
0.0469441
0.0463848
0.0446894
0.0414538
0.0364666
0.0302276
0.0241737
0.0186535
0.0138116
0.00970976
0.00630539
0.00347908
0.00108923
0.0228717
0.0244861
0.0261303
0.0277905
0.0294573
0.0311245
0.032788
0.0344444
0.0360901
0.0377199
0.0393252
0.0408921
0.0423986
0.0438098
0.0450719
0.0461025
0.0467766
0.0469075
0.046226
0.0443721
0.0409555
0.0358227
0.0295726
0.0236265
0.0182251
0.0134978
0.00949655
0.00617327
0.0034094
0.0010682
0.0232125
0.0248314
0.0264777
0.0281383
0.0298044
0.03147
0.0331312
0.0347848
0.0364267
0.0380513
0.0396492
0.0412054
0.0426958
0.0440833
0.0453104
0.0462897
0.0468898
0.0469159
0.0460913
0.0440552
0.0404415
0.0351742
0.0289728
0.0231119
0.0178137
0.0131939
0.00929003
0.00604577
0.0033425
0.0010481
0.023625
0.0252492
0.0268981
0.0285593
0.0302245
0.0318883
0.0335469
0.0351968
0.0368339
0.0384516
0.0400396
0.041581
0.0430496
0.0444049
0.0455849
0.046496
0.0469986
0.0468883
0.04588
0.0436149
0.0397622
0.0343475
0.0282222
0.0224771
0.0173113
0.0128248
0.00903938
0.00589067
0.00326081
0.00102348
0.0241118
0.0257427
0.0273942
0.0290556
0.0307192
0.0323799
0.034034
0.0356778
0.0373068
0.0389134
0.0404858
0.0420053
0.0434428
0.0447536
0.0458701
0.0466911
0.0470669
0.0467817
0.0455416
0.0429941
0.0388609
0.0332968
0.0272874
0.0216988
0.0167018
0.0123793
0.00873673
0.00570262
0.00316125
0.00099335
0.0246782
0.0263172
0.0279709
0.0296317
0.0312924
0.0329482
0.0345952
0.0362296
0.0378458
0.0394354
0.0409847
0.0424726
0.0438663
0.0451163
0.046148
0.0468507
0.0470627
0.046555
0.0450254
0.042136
0.0376848
0.031986
0.0261451
0.0207622
0.0159759
0.0118508
0.0083773
0.00547821
0.00304177
0.000957006
0.0253506
0.0269864
0.0286403
0.0302999
0.0319573
0.0336074
0.0352463
0.0368693
0.0384699
0.040038
0.0415575
0.0430041
0.0443404
0.0455106
0.0464315
0.0469806
0.0469821
0.0461927
0.0443042
0.041007
0.0362088
0.03041
0.0247977
0.0196726
0.0151389
0.0112437
0.00796376
0.00521881
0.00290293
0.000914585
)
;

boundaryField
{
    walls
    {
        type            fixedValue;
        value           uniform 1e-10;
    }
    inlet
    {
        type            cyclic;
    }
    outlet
    {
        type            cyclic;
    }
}


// ************************************************************************* //
