/*--------------------------------*- C++ -*----------------------------------*\
| =========                 |                                                 |
| \\      /  F ield         | OpenFOAM: The Open Source CFD Toolbox           |
|  \\    /   O peration     | Version:  2306                                  |
|   \\  /    A nd           | Website:  www.openfoam.com                      |
|    \\/     M anipulation  |                                                 |
\*---------------------------------------------------------------------------*/
FoamFile
{
    version     2.0;
    format      ascii;
    arch        "LSB;label=32;scalar=64";
    class       volScalarField;
    location    "4320";
    object      nut;
}
// * * * * * * * * * * * * * * * * * * * * * * * * * * * * * * * * * * * * * //

dimensions      [0 2 -1 0 0 0 0];

internalField   nonuniform List<scalar> 
2800
(
0.0101702
0.0105749
0.0109505
0.0112899
0.0115885
0.0118428
0.01205
0.0122077
0.0123139
0.0123673
0.0123673
0.0123139
0.0122077
0.01205
0.0118428
0.0115885
0.0112899
0.0109505
0.0105749
0.0101702
0.010577
0.0110952
0.0115674
0.0119961
0.0123771
0.0127053
0.0129754
0.0131825
0.0133229
0.0133938
0.0133938
0.0133229
0.0131825
0.0129754
0.0127053
0.0123771
0.0119961
0.0115674
0.0110952
0.010577
0.0109528
0.0115685
0.0121382
0.0126591
0.0131258
0.0135313
0.0138677
0.0141276
0.0143048
0.0143945
0.0143945
0.0143048
0.0141276
0.0138677
0.0135313
0.0131258
0.0126591
0.0121382
0.0115685
0.0109528
0.011292
0.0119975
0.0126598
0.013272
0.0138255
0.0143104
0.0147158
0.0150311
0.0152471
0.0153569
0.0153569
0.0152471
0.0150311
0.0147158
0.0143104
0.0138255
0.013272
0.0126598
0.0119975
0.011292
0.0115903
0.0123787
0.0131269
0.013826
0.0144642
0.0150282
0.0155031
0.0158748
0.0161305
0.0162608
0.0162608
0.0161305
0.0158748
0.0155031
0.0150282
0.0144642
0.013826
0.0131269
0.0123787
0.0115903
0.0118443
0.0127067
0.0135324
0.0143111
0.0150285
0.0156674
0.0162092
0.0166355
0.01693
0.0170805
0.0170805
0.01693
0.0166355
0.0162092
0.0156674
0.0150285
0.0143111
0.0135324
0.0127067
0.0118443
0.0120512
0.0129766
0.0138688
0.0147167
0.0155037
0.0162095
0.0168116
0.0172877
0.0176177
0.0177867
0.0177867
0.0176177
0.0172877
0.0168116
0.0162095
0.0155037
0.0147167
0.0138688
0.0129766
0.0120512
0.0122087
0.0131836
0.0141287
0.0150321
0.0158755
0.016636
0.0172879
0.0178052
0.0181648
0.0183494
0.0183494
0.0181648
0.0178052
0.0172879
0.016636
0.0158755
0.0150321
0.0141287
0.0131836
0.0122087
0.0123148
0.0133238
0.0143058
0.015248
0.0161312
0.0169306
0.017618
0.018165
0.018546
0.0187417
0.0187417
0.018546
0.018165
0.017618
0.0169306
0.0161312
0.015248
0.0143058
0.0133238
0.0123148
0.0123681
0.0133947
0.0143955
0.0153578
0.0162616
0.0170812
0.0177871
0.0183496
0.0187418
0.0189433
0.0189433
0.0187418
0.0183496
0.0177871
0.0170812
0.0162616
0.0153578
0.0143955
0.0133947
0.0123681
0.0123681
0.0133947
0.0143955
0.0153578
0.0162616
0.0170812
0.0177871
0.0183496
0.0187418
0.0189433
0.0189433
0.0187418
0.0183496
0.0177871
0.0170812
0.0162616
0.0153578
0.0143955
0.0133947
0.0123681
0.0123148
0.0133238
0.0143058
0.015248
0.0161312
0.0169306
0.017618
0.018165
0.018546
0.0187417
0.0187417
0.018546
0.018165
0.017618
0.0169306
0.0161312
0.015248
0.0143058
0.0133238
0.0123148
0.0122087
0.0131836
0.0141287
0.0150321
0.0158755
0.016636
0.0172879
0.0178052
0.0181648
0.0183494
0.0183494
0.0181648
0.0178052
0.0172879
0.016636
0.0158755
0.0150321
0.0141287
0.0131836
0.0122087
0.0120512
0.0129766
0.0138688
0.0147167
0.0155037
0.0162095
0.0168116
0.0172877
0.0176177
0.0177867
0.0177867
0.0176177
0.0172877
0.0168116
0.0162095
0.0155037
0.0147167
0.0138688
0.0129766
0.0120512
0.0118443
0.0127067
0.0135324
0.0143111
0.0150285
0.0156674
0.0162092
0.0166355
0.01693
0.0170805
0.0170805
0.01693
0.0166355
0.0162092
0.0156674
0.0150285
0.0143111
0.0135324
0.0127067
0.0118443
0.0115903
0.0123787
0.0131269
0.013826
0.0144642
0.0150282
0.0155031
0.0158748
0.0161305
0.0162608
0.0162608
0.0161305
0.0158748
0.0155031
0.0150282
0.0144642
0.013826
0.0131269
0.0123787
0.0115903
0.011292
0.0119975
0.0126598
0.013272
0.0138255
0.0143104
0.0147158
0.0150311
0.0152471
0.0153569
0.0153569
0.0152471
0.0150311
0.0147158
0.0143104
0.0138255
0.013272
0.0126598
0.0119975
0.011292
0.0109528
0.0115685
0.0121382
0.0126591
0.0131258
0.0135313
0.0138677
0.0141276
0.0143048
0.0143945
0.0143945
0.0143048
0.0141276
0.0138677
0.0135313
0.0131258
0.0126591
0.0121382
0.0115685
0.0109528
0.010577
0.0110952
0.0115674
0.0119961
0.0123771
0.0127053
0.0129754
0.0131825
0.0133229
0.0133938
0.0133938
0.0133229
0.0131825
0.0129753
0.0127053
0.0123771
0.0119961
0.0115674
0.0110952
0.010577
0.0101702
0.0105749
0.0109505
0.0112899
0.0115885
0.0118428
0.01205
0.0122077
0.0123139
0.0123673
0.0123673
0.0123139
0.0122077
0.01205
0.0118428
0.0115885
0.0112899
0.0109505
0.0105749
0.0101702
0.00955523
0.00872239
0.0079404
0.0072008
0.00650039
0.00583707
0.00520969
0.00461779
0.0040613
0.00354037
0.00305521
0.00260598
0.00219281
0.00181577
0.00147486
0.00117004
0.000901197
0.000668105
0.000470533
0.000309006
0.000186079
0.000103938
6.58371e-05
4.04573e-05
2.30123e-05
1.16654e-05
4.94789e-06
1.5427e-06
2.46625e-07
3.07755e-09
0.00991474
0.00905629
0.00825263
0.00749347
0.00677474
0.00609387
0.0054494
0.00484069
0.00426759
0.00373022
0.00322879
0.00276352
0.00233458
0.00194206
0.00158603
0.00126648
0.000983392
0.000736617
0.000525954
0.000351649
0.000215807
0.000121655
7.33086e-05
4.51513e-05
2.57936e-05
1.3146e-05
5.61045e-06
1.76184e-06
2.84212e-07
3.58802e-09
0.0102269
0.00935069
0.00852892
0.00775295
0.00701842
0.00632241
0.0056632
0.00503996
0.00445246
0.00390076
0.00338511
0.00290573
0.00246285
0.00205659
0.00168707
0.00135434
0.00105844
0.000799305
0.000576816
0.000391089
0.000243827
0.000138727
8.02999e-05
4.95472e-05
2.84115e-05
1.45499e-05
6.24398e-06
1.97331e-06
3.20881e-07
4.09308e-09
0.0105019
0.00960936
0.0087718
0.00798126
0.00723308
0.00652404
0.00585214
0.00521638
0.00461641
0.00405227
0.00352419
0.00303243
0.00257726
0.00215887
0.00177739
0.00143296
0.00112566
0.000855534
0.000622526
0.000426715
0.000269486
0.00015466
8.66869e-05
5.35669e-05
3.08168e-05
1.58488e-05
6.83481e-06
2.17221e-06
3.55714e-07
4.57898e-09
0.0107401
0.00983279
0.00898142
0.00817832
0.0074185
0.00669839
0.00601574
0.00536936
0.00475879
0.00418403
0.00364528
0.00314287
0.00267708
0.00224816
0.00185631
0.0015017
0.00118449
0.00090478
0.000662612
0.000458063
0.000292284
0.000169035
9.2357e-05
5.71376e-05
3.29622e-05
1.70147e-05
7.36886e-06
2.35337e-06
3.87716e-07
5.0304e-09
0.0109408
0.0100206
0.00915734
0.00834361
0.00757402
0.0068447
0.00615314
0.00549798
0.00487865
0.0042951
0.00374753
0.00323627
0.00276164
0.00232394
0.0019234
0.00156025
0.00123468
0.000946879
0.000696944
0.00048499
0.000312009
0.000181623
9.72586e-05
6.02239e-05
3.48218e-05
1.80299e-05
7.83656e-06
2.51298e-06
4.16112e-07
5.43473e-09
0.0111029
0.010172
0.00929894
0.00847649
0.00769895
0.00696217
0.00626344
0.00560124
0.00497493
0.00438439
0.00382984
0.0033116
0.00283004
0.00238546
0.00197814
0.00160833
0.00127625
0.00098212
0.000726093
0.000508299
0.000329595
0.000193397
0.000103441
6.30173e-05
3.64891e-05
1.89362e-05
8.25304e-06
2.655e-06
4.41419e-07
5.79719e-09
0.0112255
0.0102862
0.00940563
0.00857647
0.00779285
0.00705041
0.00634628
0.00567882
0.00504732
0.00445162
0.00389193
0.00336857
0.00288191
0.00243228
0.00201997
0.00164523
0.00130831
0.00100946
0.000748852
0.000526647
0.00034361
0.000202979
0.000108917
6.52608e-05
3.78227e-05
1.96602e-05
8.58582e-06
2.7686e-06
4.6171e-07
6.0893e-09
0.0113076
0.0103627
0.00947698
0.00864327
0.00785554
0.0071093
0.00640158
0.00573065
0.00509573
0.00449665
0.00393359
0.00340687
0.00291685
0.00246388
0.00204824
0.00167021
0.00133005
0.00102802
0.000764323
0.000539134
0.000353173
0.000209558
0.000112701
6.67956e-05
3.87348e-05
2.01559e-05
8.81402e-06
2.84667e-06
4.75694e-07
6.29144e-09
0.0113488
0.0104011
0.00951273
0.00867671
0.00788691
0.00713877
0.00642926
0.0057566
0.00512
0.00451925
0.00395452
0.00342613
0.00293444
0.0024798
0.0020625
0.00168282
0.00134102
0.00103739
0.000772133
0.00054544
0.000358008
0.000212896
0.000114629
6.7573e-05
3.91967e-05
2.04071e-05
8.92984e-06
2.88636e-06
4.82815e-07
6.39463e-09
0.0113488
0.0104011
0.00951273
0.00867671
0.00788691
0.00713877
0.00642926
0.0057566
0.00512
0.00451925
0.00395452
0.00342613
0.00293444
0.0024798
0.0020625
0.00168282
0.00134102
0.00103739
0.000772133
0.00054544
0.000358008
0.000212896
0.000114629
6.7573e-05
3.91967e-05
2.04071e-05
8.92984e-06
2.88636e-06
4.82815e-07
6.39463e-09
0.0113076
0.0103627
0.00947698
0.00864327
0.00785554
0.0071093
0.00640158
0.00573065
0.00509573
0.00449665
0.00393359
0.00340687
0.00291685
0.00246388
0.00204824
0.00167021
0.00133005
0.00102802
0.000764323
0.000539134
0.000353173
0.000209558
0.000112701
6.67956e-05
3.87348e-05
2.01559e-05
8.81402e-06
2.84667e-06
4.75694e-07
6.29144e-09
0.0112255
0.0102862
0.00940563
0.00857647
0.00779285
0.00705041
0.00634628
0.00567882
0.00504732
0.00445162
0.00389193
0.00336857
0.00288191
0.00243228
0.00201997
0.00164523
0.00130831
0.00100946
0.000748852
0.000526647
0.00034361
0.000202979
0.000108917
6.52608e-05
3.78227e-05
1.96602e-05
8.58582e-06
2.7686e-06
4.6171e-07
6.0893e-09
0.0111029
0.010172
0.00929894
0.00847649
0.00769895
0.00696217
0.00626344
0.00560124
0.00497493
0.00438439
0.00382984
0.0033116
0.00283004
0.00238546
0.00197814
0.00160833
0.00127625
0.00098212
0.000726093
0.000508299
0.000329595
0.000193397
0.000103441
6.30173e-05
3.64891e-05
1.89362e-05
8.25304e-06
2.655e-06
4.41419e-07
5.79719e-09
0.0109408
0.0100206
0.00915734
0.00834361
0.00757402
0.0068447
0.00615314
0.00549798
0.00487865
0.0042951
0.00374753
0.00323627
0.00276164
0.00232394
0.0019234
0.00156025
0.00123468
0.000946879
0.000696944
0.00048499
0.000312008
0.000181623
9.72586e-05
6.02239e-05
3.48218e-05
1.80299e-05
7.83656e-06
2.51298e-06
4.16112e-07
5.43473e-09
0.0107401
0.00983279
0.00898142
0.00817832
0.0074185
0.00669839
0.00601574
0.00536936
0.00475879
0.00418402
0.00364528
0.00314287
0.00267708
0.00224816
0.00185631
0.0015017
0.00118449
0.00090478
0.000662612
0.000458063
0.000292284
0.000169035
9.2357e-05
5.71376e-05
3.29622e-05
1.70147e-05
7.36886e-06
2.35337e-06
3.87716e-07
5.0304e-09
0.0105019
0.00960936
0.0087718
0.00798126
0.00723308
0.00652404
0.00585214
0.00521638
0.00461641
0.00405227
0.00352419
0.00303243
0.00257726
0.00215887
0.00177739
0.00143296
0.00112566
0.000855534
0.000622526
0.000426715
0.000269486
0.00015466
8.66869e-05
5.35669e-05
3.08168e-05
1.58488e-05
6.83481e-06
2.17221e-06
3.55714e-07
4.57898e-09
0.0102269
0.00935069
0.00852892
0.00775295
0.00701842
0.00632241
0.0056632
0.00503996
0.00445246
0.00390076
0.00338511
0.00290573
0.00246285
0.00205659
0.00168707
0.00135434
0.00105844
0.000799305
0.000576816
0.000391089
0.000243827
0.000138727
8.02999e-05
4.95472e-05
2.84115e-05
1.45499e-05
6.24398e-06
1.97331e-06
3.20881e-07
4.09308e-09
0.00991474
0.00905629
0.00825263
0.00749347
0.00677474
0.00609387
0.0054494
0.00484069
0.00426759
0.00373022
0.00322879
0.00276352
0.00233458
0.00194206
0.00158603
0.00126648
0.000983392
0.000736617
0.000525954
0.000351648
0.000215807
0.000121655
7.33086e-05
4.51513e-05
2.57936e-05
1.3146e-05
5.61045e-06
1.76184e-06
2.84212e-07
3.58802e-09
0.00955523
0.00872239
0.0079404
0.0072008
0.00650039
0.00583707
0.00520969
0.00461779
0.0040613
0.00354037
0.00305521
0.00260598
0.00219281
0.00181577
0.00147486
0.00117004
0.000901197
0.000668105
0.000470533
0.000309006
0.000186079
0.000103938
6.58371e-05
4.04573e-05
2.30123e-05
1.16654e-05
4.94789e-06
1.5427e-06
2.46625e-07
3.07755e-09
0.00954934
0.00871719
0.00793554
0.00719628
0.00649626
0.00583338
0.00520647
0.00461505
0.00405902
0.00353852
0.00305374
0.00260485
0.00219198
0.00181519
0.00147448
0.00116982
0.000901093
0.00066809
0.000470576
0.000309078
0.000186153
0.000103993
6.58621e-05
4.04744e-05
2.30231e-05
1.16715e-05
4.95076e-06
1.54369e-06
2.46796e-07
3.07982e-09
0.00991244
0.00905358
0.00824988
0.00749073
0.00677206
0.00609131
0.00544699
0.00483845
0.00426552
0.00372832
0.00322705
0.00276193
0.00233314
0.00194077
0.00158488
0.00126548
0.000982533
0.000735895
0.000525366
0.000351193
0.000215487
0.000121463
7.32293e-05
4.51012e-05
2.57637e-05
1.313e-05
5.60319e-06
1.75941e-06
2.83788e-07
3.58198e-09
0.010225
0.00934869
0.00852681
0.00775072
0.00701609
0.00632003
0.00566082
0.00503761
0.00445017
0.00389858
0.00338304
0.0029038
0.00246106
0.00205497
0.00168562
0.00135307
0.00105733
0.000798375
0.000576055
0.000390494
0.000243399
0.000138465
8.01945e-05
4.94809e-05
2.83718e-05
1.45285e-05
6.23423e-06
1.97002e-06
3.20303e-07
4.08482e-09
0.0105003
0.00960774
0.00877007
0.00797935
0.00723102
0.00652185
0.00584988
0.00521411
0.00461416
0.00405009
0.00352211
0.00303048
0.00257546
0.00215722
0.00177592
0.00143167
0.00112454
0.000854588
0.000621751
0.000426107
0.000269044
0.000154384
8.65781e-05
5.34984e-05
3.07756e-05
1.58265e-05
6.82457e-06
2.16873e-06
3.55096e-07
4.57007e-09
0.0107387
0.00983143
0.00897997
0.0081767
0.00741673
0.00669649
0.00601376
0.00536735
0.00475679
0.00418207
0.00364341
0.0031411
0.00267544
0.00224666
0.00185496
0.00150051
0.00118346
0.000903913
0.000661901
0.000457503
0.000291874
0.000168775
9.22563e-05
5.70743e-05
3.29241e-05
1.69939e-05
7.35928e-06
2.35009e-06
3.8713e-07
5.02187e-09
0.0109396
0.0100194
0.00915614
0.00834229
0.00757257
0.00684314
0.00615151
0.00549632
0.004877
0.00429348
0.00374598
0.0032348
0.00276028
0.00232269
0.00192227
0.00155925
0.00123381
0.000946139
0.000696335
0.000484507
0.000311652
0.000181394
9.71713e-05
6.01691e-05
3.47889e-05
1.80119e-05
7.82824e-06
2.51012e-06
4.15598e-07
5.42717e-09
0.0111018
0.010171
0.00929796
0.00847544
0.00769781
0.00696095
0.00626217
0.00559996
0.00497365
0.00438315
0.00382865
0.00331048
0.00282899
0.0023845
0.00197728
0.00160756
0.00127557
0.000981541
0.000725609
0.000507907
0.000329295
0.000193192
0.000103325
6.29699e-05
3.6461e-05
1.89209e-05
8.24602e-06
2.6526e-06
4.40986e-07
5.79077e-09
0.0112245
0.0102854
0.00940484
0.00857565
0.00779199
0.0070495
0.00634534
0.00567788
0.00504639
0.00445072
0.00389107
0.00336777
0.00288117
0.0024316
0.00201936
0.00164468
0.00130784
0.00100905
0.000748513
0.000526373
0.000343399
0.000202834
0.000108834
6.52275e-05
3.7803e-05
1.96495e-05
8.58086e-06
2.7669e-06
4.61401e-07
6.08463e-09
0.0113067
0.010362
0.00947633
0.00864262
0.00785488
0.00710863
0.00640089
0.00572996
0.00509506
0.00449602
0.00393299
0.00340631
0.00291634
0.00246342
0.00204783
0.00166985
0.00132974
0.00102775
0.000764097
0.000538951
0.000353032
0.000209461
0.000112645
6.67733e-05
3.87216e-05
2.01487e-05
8.81069e-06
2.84552e-06
4.75484e-07
6.28819e-09
0.0113479
0.0104004
0.00951215
0.00867616
0.00788636
0.00713822
0.0064287
0.00575606
0.00511948
0.00451876
0.00395406
0.0034257
0.00293405
0.00247945
0.00206219
0.00168255
0.00134079
0.00103719
0.000771968
0.000545306
0.000357905
0.000212824
0.000114587
6.75567e-05
3.91871e-05
2.04018e-05
8.9274e-06
2.88551e-06
4.82659e-07
6.39218e-09
0.0113479
0.0104004
0.00951215
0.00867616
0.00788636
0.00713822
0.0064287
0.00575606
0.00511948
0.00451876
0.00395406
0.0034257
0.00293405
0.00247945
0.00206219
0.00168255
0.00134079
0.00103719
0.000771968
0.000545306
0.000357905
0.000212824
0.000114587
6.75567e-05
3.91871e-05
2.04018e-05
8.9274e-06
2.88551e-06
4.82659e-07
6.39218e-09
0.0113067
0.010362
0.00947633
0.00864262
0.00785488
0.00710863
0.00640089
0.00572996
0.00509506
0.00449602
0.00393299
0.00340631
0.00291634
0.00246342
0.00204783
0.00166985
0.00132974
0.00102775
0.000764097
0.000538951
0.000353032
0.000209461
0.000112645
6.67733e-05
3.87216e-05
2.01487e-05
8.81069e-06
2.84552e-06
4.75484e-07
6.28819e-09
0.0112245
0.0102854
0.00940484
0.00857565
0.00779199
0.0070495
0.00634534
0.00567788
0.00504639
0.00445072
0.00389107
0.00336777
0.00288117
0.0024316
0.00201936
0.00164468
0.00130784
0.00100905
0.000748513
0.000526373
0.000343399
0.000202834
0.000108834
6.52275e-05
3.7803e-05
1.96495e-05
8.58086e-06
2.7669e-06
4.61401e-07
6.08463e-09
0.0111018
0.010171
0.00929796
0.00847544
0.00769781
0.00696095
0.00626217
0.00559996
0.00497365
0.00438315
0.00382865
0.00331048
0.00282899
0.0023845
0.00197728
0.00160756
0.00127557
0.000981541
0.000725609
0.000507907
0.000329295
0.000193192
0.000103325
6.29699e-05
3.6461e-05
1.89209e-05
8.24602e-06
2.6526e-06
4.40986e-07
5.79077e-09
0.0109396
0.0100194
0.00915614
0.00834229
0.00757257
0.00684314
0.00615151
0.00549632
0.004877
0.00429348
0.00374598
0.0032348
0.00276028
0.00232269
0.00192227
0.00155925
0.00123381
0.000946139
0.000696335
0.000484507
0.000311652
0.000181394
9.71713e-05
6.01691e-05
3.47889e-05
1.80119e-05
7.82824e-06
2.51012e-06
4.15598e-07
5.42717e-09
0.0107387
0.00983143
0.00897997
0.00817671
0.00741673
0.00669649
0.00601376
0.00536735
0.00475679
0.00418207
0.00364341
0.0031411
0.00267544
0.00224666
0.00185496
0.00150051
0.00118346
0.000903913
0.000661901
0.000457503
0.000291874
0.000168775
9.22563e-05
5.70743e-05
3.29241e-05
1.69939e-05
7.35928e-06
2.35009e-06
3.8713e-07
5.02187e-09
0.0105003
0.00960774
0.00877007
0.00797935
0.00723102
0.00652185
0.00584989
0.00521411
0.00461416
0.00405009
0.00352211
0.00303048
0.00257546
0.00215722
0.00177592
0.00143167
0.00112454
0.000854588
0.000621751
0.000426107
0.000269044
0.000154384
8.65781e-05
5.34984e-05
3.07756e-05
1.58265e-05
6.82457e-06
2.16873e-06
3.55096e-07
4.57007e-09
0.010225
0.00934869
0.00852681
0.00775072
0.0070161
0.00632003
0.00566082
0.00503761
0.00445017
0.00389858
0.00338304
0.0029038
0.00246106
0.00205497
0.00168562
0.00135307
0.00105733
0.000798375
0.000576055
0.000390494
0.000243399
0.000138465
8.01945e-05
4.94809e-05
2.83718e-05
1.45285e-05
6.23423e-06
1.97002e-06
3.20303e-07
4.08482e-09
0.00991244
0.00905358
0.00824988
0.00749073
0.00677206
0.00609131
0.00544699
0.00483845
0.00426552
0.00372832
0.00322705
0.00276193
0.00233314
0.00194077
0.00158488
0.00126548
0.000982533
0.000735895
0.000525366
0.000351193
0.000215487
0.000121463
7.32293e-05
4.51012e-05
2.57637e-05
1.313e-05
5.60319e-06
1.75941e-06
2.83788e-07
3.58198e-09
0.00954934
0.00871719
0.00793554
0.00719628
0.00649626
0.00583338
0.00520648
0.00461505
0.00405902
0.00353852
0.00305374
0.00260485
0.00219198
0.00181519
0.00147448
0.00116982
0.000901093
0.00066809
0.000470576
0.000309078
0.000186153
0.000103993
6.58621e-05
4.04744e-05
2.30231e-05
1.16715e-05
4.95076e-06
1.54369e-06
2.46796e-07
3.07982e-09
0.00955523
0.00872239
0.0079404
0.0072008
0.00650039
0.00583707
0.00520969
0.00461779
0.0040613
0.00354037
0.00305521
0.00260598
0.00219281
0.00181577
0.00147486
0.00117004
0.000901197
0.000668105
0.000470533
0.000309006
0.000186079
0.000103938
6.58371e-05
4.04573e-05
2.30123e-05
1.16654e-05
4.94789e-06
1.5427e-06
2.46625e-07
3.07755e-09
0.00991474
0.00905629
0.00825263
0.00749347
0.00677474
0.00609387
0.0054494
0.00484069
0.00426759
0.00373022
0.00322879
0.00276352
0.00233458
0.00194206
0.00158603
0.00126648
0.000983392
0.000736617
0.000525954
0.000351649
0.000215807
0.000121655
7.33086e-05
4.51513e-05
2.57936e-05
1.3146e-05
5.61045e-06
1.76184e-06
2.84212e-07
3.58802e-09
0.0102269
0.00935069
0.00852892
0.00775295
0.00701842
0.00632241
0.0056632
0.00503996
0.00445246
0.00390076
0.00338511
0.00290573
0.00246285
0.00205659
0.00168707
0.00135434
0.00105844
0.000799305
0.000576816
0.000391089
0.000243827
0.000138727
8.02999e-05
4.95472e-05
2.84115e-05
1.45499e-05
6.24398e-06
1.97331e-06
3.20881e-07
4.09308e-09
0.0105019
0.00960936
0.0087718
0.00798126
0.00723308
0.00652404
0.00585214
0.00521638
0.00461641
0.00405227
0.00352419
0.00303243
0.00257726
0.00215887
0.00177739
0.00143296
0.00112566
0.000855534
0.000622526
0.000426715
0.000269486
0.00015466
8.66869e-05
5.35669e-05
3.08168e-05
1.58488e-05
6.83481e-06
2.17221e-06
3.55714e-07
4.57898e-09
0.0107401
0.00983279
0.00898142
0.00817832
0.0074185
0.00669839
0.00601574
0.00536936
0.00475879
0.00418403
0.00364528
0.00314287
0.00267708
0.00224816
0.00185631
0.0015017
0.00118449
0.00090478
0.000662612
0.000458063
0.000292284
0.000169035
9.2357e-05
5.71376e-05
3.29622e-05
1.70147e-05
7.36886e-06
2.35337e-06
3.87716e-07
5.0304e-09
0.0109408
0.0100206
0.00915734
0.00834361
0.00757402
0.0068447
0.00615314
0.00549798
0.00487865
0.0042951
0.00374753
0.00323627
0.00276164
0.00232394
0.0019234
0.00156025
0.00123468
0.000946879
0.000696944
0.00048499
0.000312009
0.000181623
9.72586e-05
6.02239e-05
3.48218e-05
1.80299e-05
7.83656e-06
2.51298e-06
4.16112e-07
5.43473e-09
0.0111029
0.010172
0.00929894
0.00847649
0.00769895
0.00696217
0.00626344
0.00560124
0.00497493
0.00438439
0.00382984
0.0033116
0.00283004
0.00238546
0.00197814
0.00160833
0.00127625
0.00098212
0.000726093
0.000508299
0.000329595
0.000193397
0.000103441
6.30173e-05
3.64891e-05
1.89362e-05
8.25304e-06
2.655e-06
4.41419e-07
5.79719e-09
0.0112255
0.0102862
0.00940563
0.00857647
0.00779285
0.00705041
0.00634628
0.00567882
0.00504732
0.00445162
0.00389193
0.00336857
0.00288191
0.00243228
0.00201997
0.00164523
0.00130831
0.00100946
0.000748852
0.000526647
0.00034361
0.000202979
0.000108917
6.52608e-05
3.78227e-05
1.96602e-05
8.58582e-06
2.7686e-06
4.6171e-07
6.0893e-09
0.0113076
0.0103627
0.00947698
0.00864327
0.00785554
0.00710931
0.00640158
0.00573065
0.00509573
0.00449665
0.00393359
0.00340687
0.00291685
0.00246388
0.00204824
0.00167021
0.00133005
0.00102802
0.000764323
0.000539134
0.000353173
0.000209558
0.000112701
6.67956e-05
3.87348e-05
2.01559e-05
8.81402e-06
2.84667e-06
4.75694e-07
6.29144e-09
0.0113488
0.0104011
0.00951273
0.00867671
0.00788691
0.00713877
0.00642926
0.0057566
0.00512
0.00451925
0.00395452
0.00342613
0.00293444
0.0024798
0.0020625
0.00168282
0.00134102
0.00103739
0.000772133
0.00054544
0.000358008
0.000212896
0.000114629
6.7573e-05
3.91967e-05
2.04071e-05
8.92984e-06
2.88636e-06
4.82815e-07
6.39464e-09
0.0113488
0.0104011
0.00951273
0.00867671
0.00788691
0.00713877
0.00642926
0.0057566
0.00512
0.00451925
0.00395452
0.00342613
0.00293444
0.0024798
0.0020625
0.00168282
0.00134102
0.00103739
0.000772133
0.00054544
0.000358008
0.000212896
0.000114629
6.7573e-05
3.91967e-05
2.04071e-05
8.92984e-06
2.88636e-06
4.82815e-07
6.39464e-09
0.0113076
0.0103627
0.00947698
0.00864327
0.00785554
0.00710931
0.00640158
0.00573065
0.00509573
0.00449665
0.00393359
0.00340687
0.00291685
0.00246388
0.00204824
0.00167021
0.00133005
0.00102802
0.000764323
0.000539134
0.000353173
0.000209558
0.000112701
6.67956e-05
3.87348e-05
2.01559e-05
8.81402e-06
2.84667e-06
4.75694e-07
6.29144e-09
0.0112255
0.0102862
0.00940563
0.00857647
0.00779285
0.00705041
0.00634628
0.00567882
0.00504732
0.00445162
0.00389193
0.00336857
0.00288191
0.00243228
0.00201997
0.00164523
0.00130831
0.00100946
0.000748852
0.000526647
0.00034361
0.000202979
0.000108917
6.52608e-05
3.78227e-05
1.96602e-05
8.58582e-06
2.7686e-06
4.6171e-07
6.0893e-09
0.0111029
0.010172
0.00929894
0.00847649
0.00769895
0.00696217
0.00626344
0.00560124
0.00497493
0.00438439
0.00382984
0.0033116
0.00283004
0.00238546
0.00197814
0.00160833
0.00127625
0.00098212
0.000726093
0.000508299
0.000329595
0.000193397
0.000103441
6.30173e-05
3.64891e-05
1.89362e-05
8.25304e-06
2.655e-06
4.41419e-07
5.79719e-09
0.0109408
0.0100206
0.00915734
0.00834361
0.00757402
0.0068447
0.00615314
0.00549798
0.00487865
0.0042951
0.00374753
0.00323627
0.00276164
0.00232394
0.0019234
0.00156025
0.00123468
0.000946879
0.000696944
0.00048499
0.000312009
0.000181623
9.72586e-05
6.02239e-05
3.48218e-05
1.80299e-05
7.83656e-06
2.51298e-06
4.16112e-07
5.43473e-09
0.0107401
0.00983279
0.00898142
0.00817832
0.0074185
0.00669839
0.00601574
0.00536936
0.00475879
0.00418403
0.00364528
0.00314287
0.00267708
0.00224816
0.00185631
0.0015017
0.00118449
0.000904781
0.000662612
0.000458063
0.000292284
0.000169035
9.2357e-05
5.71376e-05
3.29622e-05
1.70147e-05
7.36886e-06
2.35337e-06
3.87716e-07
5.0304e-09
0.0105019
0.00960936
0.0087718
0.00798126
0.00723308
0.00652404
0.00585214
0.00521638
0.00461641
0.00405227
0.00352419
0.00303243
0.00257726
0.00215887
0.00177739
0.00143296
0.00112566
0.000855534
0.000622526
0.000426715
0.000269486
0.00015466
8.66869e-05
5.35669e-05
3.08168e-05
1.58488e-05
6.83481e-06
2.17221e-06
3.55714e-07
4.57898e-09
0.0102269
0.00935069
0.00852892
0.00775295
0.00701842
0.00632241
0.0056632
0.00503996
0.00445246
0.00390076
0.00338511
0.00290573
0.00246285
0.00205659
0.00168707
0.00135434
0.00105844
0.000799305
0.000576816
0.000391089
0.000243827
0.000138727
8.02999e-05
4.95472e-05
2.84115e-05
1.45499e-05
6.24398e-06
1.97331e-06
3.20881e-07
4.09308e-09
0.00991474
0.00905629
0.00825263
0.00749347
0.00677474
0.00609387
0.0054494
0.00484069
0.00426759
0.00373022
0.00322879
0.00276352
0.00233458
0.00194206
0.00158603
0.00126648
0.000983392
0.000736617
0.000525954
0.000351649
0.000215807
0.000121655
7.33086e-05
4.51513e-05
2.57936e-05
1.3146e-05
5.61045e-06
1.76184e-06
2.84212e-07
3.58802e-09
0.00955523
0.00872239
0.0079404
0.0072008
0.00650039
0.00583707
0.00520969
0.00461779
0.00406131
0.00354037
0.00305521
0.00260598
0.00219281
0.00181577
0.00147486
0.00117004
0.000901197
0.000668105
0.000470533
0.000309006
0.000186079
0.000103938
6.58371e-05
4.04573e-05
2.30123e-05
1.16654e-05
4.94789e-06
1.5427e-06
2.46625e-07
3.07755e-09
0.00954934
0.00871719
0.00793554
0.00719628
0.00649626
0.00583338
0.00520648
0.00461505
0.00405902
0.00353852
0.00305374
0.00260485
0.00219198
0.00181519
0.00147448
0.00116982
0.000901093
0.00066809
0.000470576
0.000309078
0.000186153
0.000103993
6.58621e-05
4.04744e-05
2.30231e-05
1.16715e-05
4.95076e-06
1.54369e-06
2.46796e-07
3.07982e-09
0.00991244
0.00905358
0.00824988
0.00749073
0.00677206
0.00609131
0.00544699
0.00483845
0.00426552
0.00372832
0.00322705
0.00276193
0.00233314
0.00194077
0.00158488
0.00126548
0.000982533
0.000735895
0.000525366
0.000351193
0.000215487
0.000121463
7.32293e-05
4.51012e-05
2.57637e-05
1.313e-05
5.60319e-06
1.75941e-06
2.83788e-07
3.58198e-09
0.010225
0.00934869
0.00852681
0.00775072
0.0070161
0.00632004
0.00566082
0.00503762
0.00445017
0.00389858
0.00338304
0.0029038
0.00246106
0.00205497
0.00168562
0.00135307
0.00105733
0.000798375
0.000576055
0.000390494
0.000243399
0.000138465
8.01945e-05
4.94809e-05
2.83718e-05
1.45285e-05
6.23423e-06
1.97002e-06
3.20303e-07
4.08482e-09
0.0105003
0.00960774
0.00877007
0.00797935
0.00723102
0.00652185
0.00584989
0.00521411
0.00461416
0.00405009
0.00352211
0.00303048
0.00257546
0.00215722
0.00177592
0.00143167
0.00112454
0.000854588
0.000621751
0.000426107
0.000269044
0.000154384
8.65781e-05
5.34984e-05
3.07756e-05
1.58265e-05
6.82457e-06
2.16873e-06
3.55096e-07
4.57007e-09
0.0107387
0.00983143
0.00897997
0.00817671
0.00741673
0.00669649
0.00601376
0.00536735
0.00475679
0.00418207
0.00364341
0.0031411
0.00267544
0.00224666
0.00185496
0.00150051
0.00118346
0.000903913
0.000661901
0.000457503
0.000291874
0.000168775
9.22563e-05
5.70743e-05
3.29241e-05
1.69939e-05
7.35928e-06
2.35009e-06
3.8713e-07
5.02187e-09
0.0109396
0.0100194
0.00915614
0.00834229
0.00757257
0.00684314
0.00615151
0.00549632
0.004877
0.00429348
0.00374598
0.0032348
0.00276028
0.00232269
0.00192227
0.00155925
0.00123381
0.000946139
0.000696335
0.000484507
0.000311653
0.000181394
9.71713e-05
6.01691e-05
3.47889e-05
1.80119e-05
7.82824e-06
2.51012e-06
4.15598e-07
5.42717e-09
0.0111018
0.010171
0.00929796
0.00847544
0.00769781
0.00696095
0.00626217
0.00559996
0.00497365
0.00438315
0.00382865
0.00331048
0.00282899
0.0023845
0.00197728
0.00160756
0.00127557
0.000981541
0.000725609
0.000507907
0.000329295
0.000193192
0.000103325
6.29699e-05
3.6461e-05
1.89209e-05
8.24602e-06
2.6526e-06
4.40986e-07
5.79077e-09
0.0112245
0.0102854
0.00940484
0.00857565
0.00779199
0.0070495
0.00634534
0.00567788
0.00504639
0.00445072
0.00389107
0.00336777
0.00288117
0.0024316
0.00201936
0.00164468
0.00130784
0.00100905
0.000748513
0.000526373
0.000343399
0.000202834
0.000108834
6.52275e-05
3.7803e-05
1.96495e-05
8.58086e-06
2.7669e-06
4.61401e-07
6.08463e-09
0.0113067
0.010362
0.00947633
0.00864263
0.00785488
0.00710863
0.00640089
0.00572996
0.00509506
0.00449602
0.00393299
0.00340631
0.00291634
0.00246342
0.00204783
0.00166985
0.00132974
0.00102775
0.000764097
0.000538951
0.000353032
0.000209461
0.000112645
6.67733e-05
3.87216e-05
2.01487e-05
8.81069e-06
2.84552e-06
4.75484e-07
6.28819e-09
0.0113479
0.0104004
0.00951215
0.00867616
0.00788636
0.00713822
0.0064287
0.00575606
0.00511948
0.00451876
0.00395406
0.0034257
0.00293406
0.00247945
0.00206219
0.00168255
0.00134079
0.00103719
0.000771968
0.000545306
0.000357905
0.000212824
0.000114587
6.75567e-05
3.91871e-05
2.04018e-05
8.9274e-06
2.88551e-06
4.82659e-07
6.39218e-09
0.0113479
0.0104004
0.00951215
0.00867616
0.00788636
0.00713822
0.0064287
0.00575606
0.00511948
0.00451876
0.00395406
0.0034257
0.00293406
0.00247945
0.00206219
0.00168255
0.00134079
0.00103719
0.000771968
0.000545306
0.000357905
0.000212824
0.000114587
6.75567e-05
3.91871e-05
2.04018e-05
8.9274e-06
2.88551e-06
4.82659e-07
6.39218e-09
0.0113067
0.010362
0.00947633
0.00864263
0.00785488
0.00710863
0.00640089
0.00572996
0.00509506
0.00449602
0.00393299
0.00340631
0.00291634
0.00246342
0.00204783
0.00166985
0.00132974
0.00102775
0.000764097
0.000538951
0.000353032
0.000209461
0.000112645
6.67733e-05
3.87216e-05
2.01487e-05
8.81069e-06
2.84552e-06
4.75484e-07
6.28819e-09
0.0112245
0.0102854
0.00940484
0.00857565
0.00779199
0.0070495
0.00634534
0.00567788
0.00504639
0.00445072
0.00389107
0.00336777
0.00288117
0.0024316
0.00201936
0.00164468
0.00130784
0.00100905
0.000748513
0.000526373
0.000343399
0.000202834
0.000108834
6.52275e-05
3.7803e-05
1.96495e-05
8.58086e-06
2.7669e-06
4.61401e-07
6.08463e-09
0.0111018
0.010171
0.00929796
0.00847544
0.00769781
0.00696095
0.00626217
0.00559996
0.00497365
0.00438315
0.00382865
0.00331048
0.00282899
0.0023845
0.00197728
0.00160756
0.00127557
0.000981541
0.000725609
0.000507907
0.000329295
0.000193192
0.000103325
6.29699e-05
3.6461e-05
1.89209e-05
8.24602e-06
2.6526e-06
4.40986e-07
5.79077e-09
0.0109396
0.0100194
0.00915614
0.00834229
0.00757257
0.00684314
0.00615151
0.00549632
0.004877