/*--------------------------------*- C++ -*----------------------------------*\
| =========                 |                                                 |
| \\      /  F ield         | OpenFOAM: The Open Source CFD Toolbox           |
|  \\    /   O peration     | Version:  2306                                  |
|   \\  /    A nd           | Website:  www.openfoam.com                      |
|    \\/     M anipulation  |                                                 |
\*---------------------------------------------------------------------------*/
FoamFile
{
    version     2.0;
    format      ascii;
    arch        "LSB;label=32;scalar=64";
    class       volScalarField;
    location    "4320";
    object      p;
}
// * * * * * * * * * * * * * * * * * * * * * * * * * * * * * * * * * * * * * //

dimensions      [0 2 -2 0 0 0 0];

internalField   nonuniform List<scalar> 
2800
(
1.03289e-15
4.61557e-15
4.68485e-15
4.68929e-15
4.6762e-15
4.73263e-15
4.76856e-15
4.76455e-15
4.75777e-15
4.73323e-15
4.67938e-15
4.69642e-15
4.73899e-15
4.67831e-15
4.62241e-15
4.60264e-15
4.555e-15
4.5199e-15
4.4313e-15
4.47564e-15
4.52211e-15
4.70164e-15
4.74372e-15
4.69378e-15
4.70526e-15
4.74709e-15
4.62556e-15
4.82421e-15
4.72412e-15
4.67008e-15
4.58401e-15
4.69872e-15
4.68618e-15
4.81038e-15
4.76237e-15
4.71099e-15
4.57322e-15
4.53521e-15
4.52196e-15
4.52443e-15
4.65625e-15
4.73995e-15
4.72673e-15
4.71743e-15
4.7098e-15
4.75114e-15
4.74809e-15
4.81268e-15
4.84047e-15
4.76086e-15
4.84179e-15
4.72391e-15
4.57521e-15
4.67718e-15
4.63087e-15
4.62321e-15
4.58401e-15
4.54544e-15
4.51218e-15
4.50254e-15
4.64497e-15
4.72311e-15
4.70063e-15
4.72966e-15
4.68847e-15
4.69341e-15
4.72629e-15
4.54311e-15
4.73776e-15
4.87029e-15
4.79505e-15
4.55792e-15
4.69389e-15
4.70304e-15
4.69147e-15
4.68378e-15
4.49206e-15
4.46753e-15
4.51083e-15
4.57623e-15
4.72602e-15
4.73006e-15
4.70884e-15
4.80284e-15
4.8164e-15
4.79816e-15
4.94791e-15
4.78861e-15
4.91428e-15
4.68359e-15
4.62048e-15
4.54848e-15
4.77566e-15
4.75462e-15
4.83276e-15
4.60185e-15
4.43861e-15
4.53792e-15
4.58209e-15
4.48533e-15
4.78978e-15
4.69072e-15
4.70313e-15
4.69296e-15
4.70488e-15
4.72213e-15
4.77089e-15
4.8464e-15
4.73241e-15
4.83459e-15
4.64285e-15
4.72634e-15
4.70443e-15
4.55352e-15
4.79552e-15
4.67396e-15
4.61685e-15
4.62081e-15
4.58926e-15
4.58878e-15
4.76749e-15
4.81253e-15
4.73211e-15
4.76279e-15
4.60114e-15
4.72466e-15
4.77224e-15
4.67844e-15
4.74877e-15
4.74523e-15
4.85021e-15
4.81667e-15
4.83608e-15
4.55733e-15
4.81497e-15
4.50494e-15
4.54879e-15
4.52872e-15
4.42366e-15
4.35154e-15
4.74964e-15
4.6007e-15
4.72877e-15
5.00481e-15
4.82418e-15
4.80675e-15
4.92342e-15
4.87047e-15
4.75974e-15
4.63316e-15
4.87784e-15
4.75178e-15
4.5448e-15
4.53937e-15
4.67276e-15
4.59067e-15
4.4386e-15
4.50631e-15
4.41885e-15
4.5304e-15
4.71397e-15
4.68486e-15
4.58982e-15
4.80272e-15
4.59631e-15
4.77102e-15
4.93006e-15
4.91423e-15
4.69931e-15
4.80853e-15
4.65149e-15
4.64591e-15
4.58324e-15
4.38872e-15
4.63265e-15
4.3426e-15
4.41154e-15
4.4433e-15
4.41309e-15
4.30355e-15
4.71232e-15
4.73505e-15
4.74286e-15
4.79929e-15
4.77266e-15
4.75457e-15
4.90197e-15
4.93823e-15
4.75435e-15
4.72694e-15
4.63344e-15
4.59776e-15
4.64974e-15
4.42436e-15
4.50923e-15
4.50239e-15
4.59318e-15
4.45726e-15
4.45658e-15
4.45491e-15
4.72368e-15
4.6091e-15
4.75118e-15
4.77108e-15
4.73032e-15
4.89479e-15
4.66886e-15
4.77506e-15
4.76039e-15
4.70441e-15
4.69559e-15
4.58845e-15
4.48579e-15
4.45866e-15
4.35749e-15
4.57638e-15
4.50619e-15
4.45305e-15
4.42023e-15
4.4662e-15
4.72308e-15
4.70535e-15
4.7673e-15
4.87716e-15
4.87152e-15
4.79119e-15
4.62617e-15
4.83761e-15
4.70838e-15
4.74719e-15
4.40283e-15
4.66359e-15
4.66239e-15
4.5598e-15
4.50007e-15
4.73263e-15
4.50858e-15
4.43652e-15
4.50659e-15
4.61624e-15
4.59483e-15
4.73926e-15
4.8288e-15
4.79115e-15
4.78518e-15
4.85095e-15
4.65026e-15
4.91882e-15
4.81627e-15
4.76788e-15
4.35915e-15
4.57326e-15
4.58677e-15
4.50325e-15
4.42214e-15
4.64749e-15
4.58419e-15
4.49814e-15
4.55722e-15
4.55179e-15
4.67969e-15
4.62275e-15
4.72995e-15
4.75152e-15
4.8503e-15
4.95895e-15
4.94003e-15
4.74849e-15
4.85714e-15
4.71973e-15
4.51883e-15
4.34253e-15
4.46986e-15
4.52631e-15
4.44475e-15
4.50533e-15
4.48559e-15
4.52904e-15
4.53191e-15
4.44517e-15
4.70305e-15
4.60484e-15
4.72292e-15
4.7288e-15
4.64112e-15
4.48407e-15
4.50409e-15
4.69442e-15
4.52534e-15
4.64859e-15
4.72155e-15
4.53599e-15
4.51178e-15
4.42891e-15
4.41228e-15
4.64009e-15
4.53047e-15
4.57139e-15
4.58442e-15
4.51128e-15
4.69432e-15
4.64995e-15
4.72986e-15
4.78941e-15
4.87849e-15
4.65907e-15
4.87118e-15
4.70768e-15
4.73363e-15
4.7599e-15
4.48316e-15
4.45997e-15
4.41613e-15
4.47968e-15
4.40922e-15
4.57556e-15
4.63147e-15
4.55477e-15
4.703e-15
4.54725e-15
4.68138e-15
4.69331e-15
4.67899e-15
4.88789e-15
4.92307e-15
4.68979e-15
4.69826e-15
4.73468e-15
4.63243e-15
4.54193e-15
4.39973e-15
4.51258e-15
4.40446e-15
4.45393e-15
4.50776e-15
4.44046e-15
4.55286e-15
4.52138e-15
4.52928e-15
4.53377e-15
4.66825e-15
4.67577e-15
4.69139e-15
4.78755e-15
4.65538e-15
4.66739e-15
4.69293e-15
4.71263e-15
4.725e-15
4.6235e-15
4.57087e-15
4.51181e-15
4.44282e-15
4.50583e-15
4.55224e-15
4.53613e-15
4.58126e-15
4.58175e-15
4.45205e-15
4.53368e-15
4.74891e-15
4.63299e-15
4.68969e-15
4.68006e-15
4.6412e-15
4.65778e-15
4.78132e-15
4.77811e-15
4.6262e-15
4.65055e-15
4.6471e-15
4.5649e-15
4.54996e-15
4.59717e-15
4.59343e-15
4.36687e-15
4.59561e-15
4.65911e-15
4.55464e-15
4.51947e-15
4.64214e-15
4.62161e-15
4.61775e-15
4.52691e-15
4.69551e-15
4.61601e-15
4.78565e-15
4.58111e-15
4.70781e-15
4.61888e-15
4.58325e-15
4.53934e-15
4.57477e-15
4.64634e-15
4.60754e-15
4.57729e-15
4.59212e-15
4.58633e-15
4.61399e-15
4.58031e-15
4.52765e-15
4.46938e-15
4.46399e-15
4.42128e-15
4.4075e-15
4.36673e-15
4.3469e-15
4.3851e-15
4.35957e-15
4.34566e-15
4.3777e-15
4.40592e-15
4.39573e-15
4.41399e-15
4.41417e-15
4.40684e-15
4.40756e-15
4.41372e-15
4.4058e-15
4.4014e-15
4.40096e-15
4.40359e-15
4.40489e-15
4.40634e-15
4.40561e-15
4.40518e-15
4.4053e-15
4.40557e-15
4.4056e-15
4.40545e-15
4.47911e-15
4.43108e-15
4.3748e-15
4.42541e-15
4.37122e-15
4.38877e-15
4.40395e-15
4.36158e-15
4.3793e-15
4.37188e-15
4.39552e-15
4.38978e-15
4.37803e-15
4.38613e-15
4.39731e-15
4.4109e-15
4.39259e-15
4.39368e-15
4.40289e-15
4.40247e-15
4.40573e-15
4.40542e-15
4.4078e-15
4.40518e-15
4.40429e-15
4.40634e-15
4.4069e-15
4.40708e-15
4.40718e-15
4.4068e-15
4.43768e-15
4.48461e-15
4.39617e-15
4.45497e-15
4.43964e-15
4.4071e-15
4.39952e-15
4.40032e-15
4.41977e-15
4.41518e-15
4.38781e-15
4.37885e-15
4.38687e-15
4.38941e-15
4.40479e-15
4.40284e-15
4.40471e-15
4.41288e-15
4.4118e-15
4.40855e-15
4.40798e-15
4.41094e-15
4.40895e-15
4.4082e-15
4.41162e-15
4.41253e-15
4.41188e-15
4.4121e-15
4.4122e-15
4.41187e-15
4.4195e-15
4.4694e-15
4.41684e-15
4.42184e-15
4.40227e-15
4.41657e-15
4.47164e-15
4.40802e-15
4.41841e-15
4.4074e-15
4.39672e-15
4.38815e-15
4.40792e-15
4.4255e-15
4.40457e-15
4.39914e-15
4.40694e-15
4.4104e-15
4.41192e-15
4.4144e-15
4.41493e-15
4.41356e-15
4.4133e-15
4.41248e-15
4.4115e-15
4.41443e-15
4.41651e-15
4.41396e-15
4.41447e-15
4.41455e-15
4.47011e-15
4.45432e-15
4.42967e-15
4.45793e-15
4.42809e-15
4.40752e-15
4.36076e-15
4.39558e-15
4.44071e-15
4.41171e-15
4.39197e-15
4.39542e-15
4.40442e-15
4.42721e-15
4.41078e-15
4.39538e-15
4.40931e-15
4.41434e-15
4.40719e-15
4.40587e-15
4.40983e-15
4.40641e-15
4.40326e-15
4.40793e-15
4.40796e-15
4.40675e-15
4.40647e-15
4.40645e-15
4.40624e-15
4.4066e-15
4.50369e-15
4.56544e-15
4.54786e-15
4.44522e-15
4.43106e-15
4.44892e-15
4.43055e-15
4.43919e-15
4.43903e-15
4.42257e-15
4.41462e-15
4.4124e-15
4.42095e-15
4.43048e-15
4.43552e-15
4.43051e-15
4.42501e-15
4.41774e-15
4.42014e-15
4.42104e-15
4.42272e-15
4.42046e-15
4.41861e-15
4.41858e-15
4.41912e-15
4.41835e-15
4.41851e-15
4.41852e-15
4.41813e-15
4.41798e-15
4.46295e-15
4.55299e-15
4.45137e-15
4.42681e-15
4.4926e-15
4.4298e-15
4.43628e-15
4.46237e-15
4.44836e-15
4.43277e-15
4.43927e-15
4.41598e-15
4.39592e-15
4.40793e-15
4.40883e-15
4.40492e-15
4.40568e-15
4.39892e-15
4.39554e-15
4.39129e-15
4.38993e-15
4.38883e-15
4.39111e-15
4.39314e-15
4.39115e-15
4.38994e-15
4.38995e-15
4.39036e-15
4.39044e-15
4.39045e-15
4.51163e-15
4.4964e-15
4.45841e-15
4.4147e-15
4.35675e-15
4.42231e-15
4.40215e-15
4.35687e-15
4.34618e-15
4.34355e-15
4.3526e-15
4.386e-15
4.38017e-15
4.39426e-15
4.39516e-15
4.39764e-15
4.38406e-15
4.37498e-15
4.37633e-15
4.3781e-15
4.3814e-15
4.37917e-15
4.37834e-15
4.38022e-15
4.37796e-15
4.37764e-15
4.37803e-15
4.37788e-15
4.37748e-15
4.37752e-15
4.44539e-15
4.35405e-15
4.46597e-15
4.4625e-15
4.46405e-15
4.40455e-15
4.42872e-15
4.44722e-15
4.39044e-15
4.40115e-15
4.3725e-15
4.38297e-15
4.38805e-15
4.37661e-15
4.37364e-15
4.39064e-15
4.38633e-15
4.38845e-15
4.38537e-15
4.38822e-15
4.38989e-15
4.38729e-15
4.38751e-15
4.3888e-15
4.38876e-15
4.38865e-15
4.38827e-15
4.38833e-15
4.38853e-15
4.38852e-15
4.5111e-15
4.57701e-15
4.53499e-15
4.42052e-15
4.47766e-15
4.42409e-15
4.47218e-15
4.45584e-15
4.41517e-15
4.4104e-15
4.40697e-15
4.40567e-15
4.40646e-15
4.41318e-15
4.41432e-15
4.40869e-15
4.41601e-15
4.41183e-15
4.40992e-15
4.40713e-15
4.41091e-15
4.41315e-15
4.41349e-15
4.41391e-15
4.41411e-15
4.41431e-15
4.41398e-15
4.41377e-15
4.41372e-15
4.41366e-15
4.44973e-15
4.41548e-15
4.44651e-15
4.43361e-15
4.45262e-15
4.44949e-15
4.42216e-15
4.40062e-15
4.40543e-15
4.3861e-15
4.38445e-15
4.37251e-15
4.38787e-15
4.39552e-15
4.38092e-15
4.39771e-15
4.39226e-15
4.39608e-15
4.39162e-15
4.38487e-15
4.3895e-15
4.39224e-15
4.39289e-15
4.39254e-15
4.39291e-15
4.39336e-15
4.39286e-15
4.39281e-15
4.39291e-15
4.39282e-15
4.49816e-15
4.50018e-15
4.50832e-15
4.50621e-15
4.49064e-15
4.48532e-15
4.46538e-15
4.41719e-15
4.4792e-15
4.45713e-15
4.44177e-15
4.4242e-15
4.43222e-15
4.43451e-15
4.41262e-15
4.41397e-15
4.41117e-15
4.4051e-15
4.40453e-15
4.40395e-15
4.4045e-15
4.40597e-15
4.40577e-15
4.40445e-15
4.40391e-15
4.40399e-15
4.40394e-15
4.40417e-15
4.40403e-15
4.4039e-15
4.52369e-15
4.46923e-15
4.38116e-15
4.47797e-15
4.51596e-15
4.4606e-15
4.44846e-15
4.39546e-15
4.41838e-15
4.44032e-15
4.42772e-15
4.43784e-15
4.44045e-15
4.44205e-15
4.44788e-15
4.42538e-15
4.42786e-15
4.4262e-15
4.42322e-15
4.42109e-15
4.41761e-15
4.42057e-15
4.42244e-15
4.41943e-15
4.41994e-15
4.41966e-15
4.41927e-15
4.41967e-15
4.41976e-15
4.41962e-15
4.46805e-15
4.39828e-15
4.55718e-15
4.47876e-15
4.44012e-15
4.45555e-15
4.45912e-15
4.46196e-15
4.49159e-15
4.48473e-15
4.48904e-15
4.46159e-15
4.46533e-15
4.46054e-15
4.44763e-15
4.44834e-15
4.45058e-15
4.4351e-15
4.4306e-15
4.4383e-15
4.44016e-15
4.43947e-15
4.43769e-15
4.43636e-15
4.43719e-15
4.43711e-15
4.43771e-15
4.43741e-15
4.43745e-15
4.43754e-15
4.51812e-15
4.54457e-15
4.61364e-15
4.52574e-15
4.48714e-15
4.49028e-15
4.45022e-15
4.41771e-15
4.41186e-15
4.43728e-15
4.43701e-15
4.44383e-15
4.43706e-15
4.42992e-15
4.43244e-15
4.42987e-15
4.42113e-15
4.42753e-15
4.43284e-15
4.4337e-15
4.42867e-15
4.42889e-15
4.4314e-15
4.43235e-15
4.43195e-15
4.43195e-15
4.43128e-15
4.43155e-15
4.4321e-15
4.43231e-15
4.43611e-15
4.4943e-15
4.46025e-15
4.44382e-15
4.46735e-15
4.43295e-15
4.42044e-15
4.41629e-15
4.45562e-15
4.4482e-15
4.44079e-15
4.4431e-15
4.44931e-15
4.43473e-15
4.44461e-15
4.45063e-15
4.43941e-15
4.4357e-15
4.44407e-15
4.44042e-15
4.43504e-15
4.43984e-15
4.44498e-15
4.44006e-15
4.4396e-15
4.4405e-15
4.44095e-15
4.44091e-15
4.44078e-15
4.44073e-15
4.53237e-15
4.5108e-15
4.47281e-15
4.46514e-15
4.48511e-15
4.47236e-15
4.44242e-15
4.44006e-15
4.47112e-15
4.473e-15
4.48048e-15
4.45696e-15
4.4422e-15
4.42357e-15
4.44275e-15
4.43543e-15
4.42479e-15
4.4335e-15
4.43303e-15
4.43427e-15
4.42944e-15
4.42732e-15
4.42798e-15
4.43009e-15
4.43219e-15
4.42824e-15
4.42657e-15
4.42753e-15
4.42771e-15
4.42753e-15
4.5562e-15
4.55294e-15
4.53027e-15
4.44265e-15
4.44564e-15
4.40295e-15
4.39897e-15
4.43545e-15
4.42929e-15
4.41658e-15
4.43535e-15
4.42614e-15
4.41671e-15
4.41027e-15
4.41685e-15
4.42505e-15
4.41817e-15
4.41356e-15
4.41119e-15
4.41704e-15
4.41753e-15
4.41204e-15
4.41536e-15
4.41564e-15
4.41471e-15
4.41415e-15
4.41361e-15
4.41318e-15
4.41329e-15
4.41374e-15
4.61528e-15
4.5789e-15
4.53953e-15
4.44125e-15
4.4813e-15
4.44954e-15
4.46644e-15
4.49041e-15
4.4571e-15
4.45935e-15
4.44921e-15
4.43128e-15
4.43675e-15
4.44786e-15
4.42851e-15
4.41022e-15
4.42957e-15
4.43491e-15
4.42711e-15
4.43001e-15
4.43036e-15
4.4286e-15
4.42415e-15
4.42803e-15
4.42937e-15
4.42733e-15
4.42676e-15
4.42729e-15
4.42702e-15
4.42725e-15
4.55995e-15
4.56636e-15
4.50611e-15
4.48417e-15
4.44313e-15
4.42029e-15
4.46397e-15
4.4495e-15
4.47744e-15
4.4767e-15
4.41961e-15
4.39825e-15
4.39475e-15
4.39894e-15
4.41421e-15
4.42395e-15
4.41954e-15
4.40937e-15
4.41799e-15
4.41943e-15
4.42002e-15
4.42086e-15
4.41984e-15
4.42053e-15
4.42059e-15
4.42006e-15
4.42061e-15
4.42092e-15
4.42105e-15
4.42133e-15
4.54934e-15
4.51024e-15
4.4978e-15
4.54032e-15
4.53783e-15
4.53294e-15
4.50547e-15
4.44861e-15
4.4658e-15
4.45784e-15
4.45989e-15
4.44263e-15
4.42588e-15
4.42295e-15
4.43248e-15
4.42776e-15
4.43427e-15
4.43849e-15
4.4354e-15
4.43305e-15
4.43517e-15
4.437e-15
4.43537e-15
4.43623e-15
4.435e-15
4.43728e-15
4.43666e-15
4.43596e-15
4.43606e-15
4.43591e-15
4.52032e-15
4.57571e-15
4.63455e-15
4.58255e-15
4.52216e-15
4.54383e-15
4.52489e-15
4.50166e-15
4.48922e-15
4.46943e-15
4.49923e-15
4.4852e-15
4.4845e-15
4.47334e-15
4.47646e-15
4.48229e-15
4.47741e-15
4.47575e-15
4.47274e-15
4.47785e-15
4.48112e-15
4.48534e-15
4.48351e-15
4.48328e-15
4.48258e-15
4.48426e-15
4.48196e-15
4.48217e-15
4.48359e-15
4.48376e-15
4.5977e-15
4.61077e-15
4.55281e-15
4.61222e-15
4.61475e-15
4.56777e-15
4.57917e-15
4.59768e-15
4.54793e-15
4.53871e-15
4.52092e-15
4.53423e-15
4.55749e-15
4.52671e-15
4.51924e-15
4.5277e-15
4.50834e-15
4.52301e-15
4.52341e-15
4.52367e-15
4.52275e-15
4.5205e-15
4.52505e-15
4.52677e-15
4.52731e-15
4.52542e-15
4.52423e-15
4.52443e-15
4.52481e-15
4.52524e-15
4.46553e-15
4.65409e-15
4.55045e-15
4.62971e-15
4.56234e-15
4.59979e-15
4.54913e-15
4.54632e-15
4.54609e-15
4.55226e-15
4.57921e-15
4.5762e-15
4.56404e-15
4.57607e-15
4.59176e-15
4.58847e-15
4.58077e-15
4.5893e-15
4.58209e-15
4.57949e-15
4.57361e-15
4.57593e-15
4.5805e-15
4.5813e-15
4.58041e-15
4.57904e-15
4.58035e-15
4.58083e-15
4.57958e-15
4.57939e-15
4.55011e-15
4.58293e-15
4.58665e-15
4.61418e-15
4.63393e-15
4.59499e-15
4.61819e-15
4.61528e-15
4.63683e-15
4.60983e-15
4.60142e-15
4.5811e-15
4.59219e-15
4.59738e-15
4.58864e-15
4.58294e-15
4.59677e-15
4.60149e-15
4.60145e-15
4.58884e-15
4.59403e-15
4.59569e-15
4.59282e-15
4.59209e-15
4.59114e-15
4.59078e-15
4.59116e-15
4.59089e-15
4.58954e-15
4.58963e-15
4.55201e-15
4.6671e-15
4.68631e-15
4.61305e-15
4.57391e-15
4.57751e-15
4.63413e-15
4.60305e-15
4.60706e-15
4.61075e-15
4.63971e-15
4.6657e-15
4.62954e-15
4.62887e-15
4.63706e-15
4.62231e-15
4.62813e-15
4.62865e-15
4.6167e-15
4.61843e-15
4.62113e-15
4.62213e-15
4.6231e-15
4.6275e-15
4.62303e-15
4.6214e-15
4.62317e-15
4.6236e-15
4.62318e-15
4.62306e-15
4.52322e-15
4.5982e-15
4.593e-15
4.60518e-15
4.61333e-15
4.57832e-15
4.61582e-15
4.59269e-15
4.60981e-15
4.6095e-15
4.6083e-15
4.59375e-15
4.58893e-15
4.60879e-15
4.60797e-15
4.60843e-15
4.60265e-15
4.60409e-15
4.59315e-15
4.58987e-15
4.59249e-15
4.59089e-15
4.59236e-15
4.59118e-15
4.59035e-15
4.58945e-15
4.58939e-15
4.59005e-15
4.59017e-15
4.5902e-15
4.5647e-15
4.53218e-15
4.57374e-15
4.65713e-15
4.56901e-15
4.60286e-15
4.61441e-15
4.55447e-15
4.61445e-15
4.6189e-15
4.59927e-15
4.57993e-15
4.57356e-15
4.59785e-15
4.5923e-15
4.57749e-15
4.57877e-15
4.58103e-15
4.5842e-15
4.58551e-15
4.58651e-15
4.58979e-15
4.587e-15
4.58866e-15
4.59101e-15
4.59047e-15
4.59025e-15
4.59038e-15
4.59051e-15
4.59059e-15
4.53609e-15
4.66824e-15
4.51132e-15
4.58304e-15
4.59835e-15
4.58573e-15
4.60619e-15
4.5944e-15
4.53301e-15
4.58431e-15
4.57617e-15
4.56779e-15
4.55942e-15
4.55759e-15
4.55827e-15
4.55722e-15
4.56219e-15
4.57152e-15
4.56156e-15
4.55932e-15
4.564e-15
4.56212e-15
4.5625e-15
4.56145e-15
4.56194e-15
4.56243e-15
4.56254e-15
4.56232e-15
4.56218e-15
4.56224e-15
4.62952e-15
4.58054e-15
4.60678e-15
4.5708e-15
4.56023e-15
4.61161e-15
4.57132e-15
4.57462e-15
4.59654e-15
4.56271e-15
4.56176e-15
4.56965e-15
4.58661e-15
4.57173e-15
4.5782e-15
4.58818e-15
4.59352e-15
4.58768e-15
4.58278e-15
4.58088e-15
4.58242e-15
4.58252e-15
4.58416e-15
4.5849e-15
4.58568e-15
4.58522e-15
4.58556e-15
4.58566e-15
4.58587e-15
4.58593e-15
4.62927e-15
4.60823e-15
4.63417e-15
4.62882e-15
4.69364e-15
4.6521e-15
4.62234e-15
4.65048e-15
4.60975e-15
4.60211e-15
4.5981e-15
4.60915e-15
4.58582e-15
4.58891e-15
4.58293e-15
4.57394e-15
4.5849e-15
4.60102e-15
4.59266e-15
4.59207e-15
4.59298e-15
4.59489e-15
4.59395e-15
4.59521e-15
4.5962e-15
4.5956e-15
4.59562e-15
4.5951e-15
4.5951e-15
4.59528e-15
4.75102e-15
4.68394e-15
4.64844e-15
4.6338e-15
4.6253e-15
4.64476e-15
4.64415e-15
4.62704e-15
4.61863e-15
4.60694e-15
4.60675e-15
4.61534e-15
4.59758e-15
4.60095e-15
4.60346e-15
4.6094e-15
4.61861e-15
4.61312e-15
4.6194e-15
4.61668e-15
4.6156e-15
4.61599e-15
4.61813e-15
4.61922e-15
4.619e-15
4.61858e-15
4.61906e-15
4.6192e-15
4.61915e-15
4.6189e-15
4.60943e-15
4.64103e-15
4.62795e-15
4.63217e-15
4.62484e-15
4.63466e-15
4.66024e-15
4.68975e-15
4.66806e-15
4.65559e-15
4.67648e-15
4.65627e-15
4.64698e-15
4.64215e-15
4.6379e-15
4.65301e-15
4.66095e-15
4.64943e-15
4.64432e-15
4.64552e-15
4.64464e-15
4.64503e-15
4.6466e-15
4.64753e-15
4.64603e-15
4.64721e-15
4.64796e-15
4.64806e-15
4.64809e-15
4.64822e-15
4.704e-15
4.65358e-15
4.56868e-15
4.61525e-15
4.66056e-15
4.64311e-15
4.62536e-15
4.61166e-15
4.65005e-15
4.62872e-15
4.60314e-15
4.63086e-15
4.61186e-15
4.61205e-15
4.61608e-15
4.61067e-15
4.61593e-15
4.60824e-15
4.62144e-15
4.63006e-15
4.62204e-15
4.62036e-15
4.61951e-15
4.61981e-15
4.62015e-15
4.62062e-15
4.62107e-15
4.62076e-15
4.62048e-15
4.61997e-15
4.60851e-15
4.74339e-15
4.75382e-15
4.64349e-15
4.60552e-15
4.64813e-15
4.58534e-15
4.6201e-15
4.63514e-15
4.67572e-15
4.65067e-15
4.60853e-15
4.61606e-15
4.62346e-15
4.63539e-15
4.6395e-15
4.62753e-15
4.63058e-15
4.63221e-15
4.63505e-15
4.63501e-15
4.63414e-15
4.6348e-15
4.63174e-15
4.63651e-15
4.63853e-15
4.63725e-15
4.63728e-15
4.6374e-15
4.63749e-15
4.71724e-15
4.66397e-15
4.63289e-15
4.55838e-15
4.6149e-15
4.60254e-15
4.61559e-15
4.62683e-15
4.63843e-15
4.62143e-15
4.61163e-15
4.61019e-15
4.60269e-15
4.5996e-15
4.56423e-15
4.57077e-15
4.56789e-15
4.58176e-15
4.58774e-15
4.59258e-15
4.58397e-15
4.58279e-15
4.5848e-15
4.58612e-15
4.58609e-15
4.58442e-15
4.58416e-15
4.58394e-15
4.58497e-15
4.58503e-15
4.63949e-15
4.71769e-15
4.6926e-15
4.62439e-15
4.62413e-15
4.64227e-15
4.64772e-15
4.61307e-15
4.63084e-15
4.63528e-15
4.63642e-15
4.61047e-15
4.62625e-15
4.63365e-15
4.60141e-15
4.611e-15
4.6188e-15
4.60544e-15
4.61002e-15
4.61085e-15
4.61593e-15
4.6133e-15
4.61319e-15
4.61197e-15
4.6108e-15
4.61176e-15
4.61032e-15
4.60961e-15
4.6105e-15
4.61085e-15
4.62681e-15
4.65416e-15
4.61303e-15
4.64516e-15
4.65295e-15
4.64538e-15
4.59804e-15
4.56564e-15
4.58985e-15
4.57412e-15
4.59723e-15
4.58998e-15
4.57819e-15
4.59096e-15
4.59094e-15
4.57568e-15
4.58953e-15
4.57495e-15
4.57402e-15
4.57282e-15
4.57326e-15
4.57467e-15
4.56735e-15
4.5666e-15
4.56782e-15
4.56987e-15
4.57134e-15
4.57033e-15
4.57044e-15
4.57004e-15
4.63933e-15
4.62867e-15
4.59697e-15
4.59284e-15
4.54815e-15
4.56294e-15
4.61048e-15
4.60973e-15
4.60318e-15
4.58606e-15
4.57312e-15
4.60567e-15
4.57492e-15
4.59238e-15
4.59513e-15
4.58233e-15
4.59133e-15
4.58566e-15
4.59018e-15
4.59071e-15
4.58744e-15
4.58615e-15
4.58823e-15
4.58667e-15
4.58765e-15
4.58661e-15
4.58863e-15
4.58896e-15
4.58788e-15
4.58738e-15
4.56274e-15
4.59521e-15
4.61092e-15
4.59887e-15
4.54604e-15
4.53407e-15
4.57379e-15
4.57934e-15
4.54563e-15
4.55865e-15
4.55245e-15
4.54731e-15
4.56631e-15
4.57795e-15
4.58033e-15
4.5767e-15
4.56842e-15
4.56499e-15
4.56887e-15
4.57388e-15
4.57454e-15
4.57239e-15
4.57233e-15
4.56974e-15
4.57095e-15
4.57085e-15
4.57212e-15
4.57188e-15
4.57196e-15
4.57184e-15
4.69534e-15
4.63971e-15
4.63095e-15
4.61649e-15
4.57775e-15
4.51126e-15
4.52121e-15
4.56368e-15
4.52523e-15
4.51745e-15
4.55671e-15
4.5801e-15
4.56905e-15
4.587e-15
4.59468e-15
4.5932e-15
4.59276e-15
4.5985e-15
4.58976e-15
4.58651e-15
4.58664e-15
4.58911e-15
4.59042e-15
4.59181e-15
4.59079e-15
4.59035e-15
4.59016e-15
4.59012e-15
4.59004e-15
4.58977e-15
4.67152e-15
4.62191e-15
4.57122e-15
4.63059e-15
4.57508e-15
4.58623e-15
4.59728e-15
4.5637e-15
4.58823e-15
4.58352e-15
4.61165e-15
4.60722e-15
4.59403e-15
4.60111e-15
4.61154e-15
4.62448e-15
4.60458e-15
4.60211e-15
4.61035e-15
4.60943e-15
4.61212e-15
4.61137e-15
4.61354e-15
4.61085e-15
4.60992e-15
4.61198e-15
4.61247e-15
4.61256e-15
4.61275e-15
4.61243e-15
4.63974e-15
4.68248e-15
4.5999e-15
4.66766e-15
4.66845e-15
4.63503e-15
4.626e-15
4.62762e-15
4.64831e-15
4.65035e-15
4.62399e-15
4.61195e-15
4.62302e-15
4.62386e-15
4.63656e-15
4.63255e-15
4.63275e-15
4.64119e-15
4.63744e-15
4.6329e-15
4.63064e-15
4.63268e-15
4.63052e-15
4.62958e-15
4.63271e-15
4.6335e-15
4.63256e-15
4.63269e-15
4.63279e-15
4.63239e-15
4.59057e-15
4.6499e-15
4.61944e-15
4.65283e-15
4.63079e-15
4.64574e-15
4.70676e-15
4.64844e-15
4.66825e-15
4.66244e-15
4.66369e-15
4.65996e-15
4.67985e-15
4.69494e-15
4.67087e-15
4.66314e-15
4.66938e-15
4.6703e-15
4.66976e-15
4.6707e-15
4.66993e-15
4.66779e-15
4.66688e-15
4.66578e-15
4.66453e-15
4.66751e-15
4.66959e-15
4.66706e-15
4.66765e-15
4.66778e-15
4.66915e-15
4.64864e-15
4.62635e-15
4.66341e-15
4.63414e-15
4.61584e-15
4.57052e-15
4.60593e-15
4.67343e-15
4.66241e-15
4.65119e-15
4.64602e-15
4.65132e-15
4.67492e-15
4.65487e-15
4.63644e-15
4.65085e-15
4.65539e-15
4.64925e-15
4.64711e-15
4.65264e-15
4.65019e-15
4.64751e-15
4.65244e-15
4.65293e-15
4.65203e-15
4.65188e-15
4.65186e-15
4.65161e-15
4.65191e-15
4.73014e-15
4.77038e-15
4.77757e-15
4.65109e-15
4.61907e-15
4.66181e-15
4.65418e-15
4.676e-15
4.6902e-15
4.67982e-15
4.68114e-15
4.67111e-15
4.6741e-15
4.67729e-15
4.68156e-15
4.6787e-15
4.67243e-15
4.66649e-15
4.67258e-15
4.6754e-15
4.67904e-15
4.67793e-15
4.67661e-15
4.677e-15
4.67788e-15
4.67722e-15
4.67745e-15
4.67758e-15
4.67727e-15
4.67723e-15
4.69234e-15
4.80767e-15
4.66517e-15
4.62593e-15
4.67539e-15
4.62304e-15
4.64128e-15
4.67263e-15
4.65998e-15
4.64884e-15
4.66847e-15
4.65413e-15
4.63598e-15
4.65424e-15
4.65624e-15
4.65759e-15
4.65982e-15
4.65838e-15
4.65892e-15
4.65684e-15
4.65627e-15
4.65649e-15
4.65977e-15
4.66195e-15
4.66013e-15
4.65912e-15
4.65921e-15
4.65959e-15
4.65971e-15
4.65976e-15
4.7179e-15
4.71085e-15
4.68174e-15
4.63638e-15
4.58941e-15
4.65556e-15
4.63561e-15
4.59321e-15
4.58234e-15
4.59074e-15
4.59908e-15
4.63703e-15
4.63549e-15
4.65081e-15
4.65656e-15
4.66085e-15
4.6499e-15
4.6433e-15
4.642e-15
4.64353e-15
4.64721e-15
4.64542e-15
4.64401e-15
4.64549e-15
4.64344e-15
4.64317e-15
4.64354e-15
4.64336e-15
4.64286e-15
4.64281e-15
4.67929e-15
4.54159e-15
4.67942e-15
4.67141e-15
4.6911e-15
4.64089e-15
4.65578e-15
4.68385e-15
4.63312e-15
4.65113e-15
4.62992e-15
4.6369e-15
4.64349e-15
4.63291e-15
4.63133e-15
4.64368e-15
4.63738e-15
4.63816e-15
4.63553e-15
4.63631e-15
4.63695e-15
4.63353e-15
4.63308e-15
4.63385e-15
4.63318e-15
4.63287e-15
4.63252e-15
4.63253e-15
4.63272e-15
4.63272e-15
4.75339e-15
4.83469e-15
4.75668e-15
4.63994e-15
4.71284e-15
4.65833e-15
4.70398e-15
4.68787e-15
4.64826e-15
4.66048e-15
4.66243e-15
4.65556e-15
4.65445e-15
4.65519e-15
4.65102e-15
4.64759e-15
4.65416e-15
4.64844e-15
4.64548e-15
4.64206e-15
4.64516e-15
4.64623e-15
4.6461e-15
4.64618e-15
4.64647e-15
4.64667e-15
4.6463e-15
4.6461e-15
4.64607e-15
4.64607e-15
4.67831e-15
4.64478e-15
4.66018e-15
4.64772e-15
4.66648e-15
4.68064e-15
4.65395e-15
4.6303e-15
4.63132e-15
4.60927e-15
4.61813e-15
4.60868e-15
4.62862e-15
4.63421e-15
4.61873e-15
4.63474e-15
4.62886e-15
4.63015e-15
4.6245e-15
4.61767e-15
4.6216e-15
4.62323e-15
4.62346e-15
4.623e-15
4.62328e-15
4.62375e-15
4.62319e-15
4.6232e-15
4.62337e-15
4.62329e-15
4.69704e-15
4.74517e-15
4.74144e-15
4.72321e-15
4.71391e-15
4.7144e-15
4.70732e-15
4.64346e-15
4.70525e-15
4.68465e-15
4.67313e-15
4.66147e-15
4.66883e-15
4.67724e-15
4.65774e-15
4.65783e-15
4.65853e-15
4.65444e-15
4.65621e-15
4.65671e-15
4.65825e-15
4.66035e-15
4.6606e-15
4.65945e-15
4.65883e-15
4.65891e-15
4.6588e-15
4.65897e-15
4.65881e-15
4.65874e-15
4.73918e-15
4.70377e-15
4.63347e-15
4.71423e-15
4.73345e-15
4.68307e-15
4.67122e-15
4.61495e-15
4.64694e-15
4.66645e-15
4.65059e-15
4.65621e-15
4.65964e-15
4.66113e-15
4.66605e-15
4.64883e-15
4.65573e-15
4.6566e-15
4.65515e-15
4.65382e-15
4.64906e-15
4.65104e-15
4.65284e-15
4.64961e-15
4.6503e-15
4.65029e-15
4.65003e-15
4.6505e-15
4.65064e-15
4.65053e-15
4.72181e-15
4.62444e-15
4.79708e-15
4.70574e-15
4.67667e-15
4.69043e-15
4.69658e-15
4.70507e-15
4.74188e-15
4.72904e-15
4.72835e-15
4.7005e-15
4.71121e-15
4.70834e-15
4.69835e-15
4.70325e-15
4.70333e-15
4.68804e-15
4.68262e-15
4.69117e-15
4.69299e-15
4.69206e-15
4.69027e-15
4.68884e-15
4.68942e-15
4.68919e-15
4.68976e-15
4.68939e-15
4.68939e-15
4.68948e-15
4.78183e-15
4.79512e-15
4.85528e-15
4.7522e-15
4.71099e-15
4.73281e-15
4.69658e-15
4.6711e-15
4.66427e-15
4.68931e-15
4.68575e-15
4.6914e-15
4.68591e-15
4.67444e-15
4.67655e-15
4.67336e-15
4.66565e-15
4.6708e-15
4.67514e-15
4.67542e-15
4.67004e-15
4.67008e-15
4.67214e-15
4.67279e-15
4.67242e-15
4.67221e-15
4.67137e-15
4.67163e-15
4.67223e-15
4.67254e-15
4.64817e-15
4.71217e-15
4.67831e-15
4.66265e-15
4.67998e-15
4.6459e-15
4.63919e-15
4.64421e-15
4.68468e-15
4.68321e-15
4.68103e-15
4.69113e-15
4.70278e-15
4.69498e-15
4.70805e-15
4.71311e-15
4.69733e-15
4.69032e-15
4.69623e-15
4.6913e-15
4.68537e-15
4.68949e-15
4.69417e-15
4.6892e-15
4.68868e-15
4.68962e-15
4.6901e-15
4.69006e-15
4.68998e-15
4.68999e-15
4.73421e-15
4.71269e-15
4.65474e-15
4.65045e-15
4.66145e-15
4.62794e-15
4.61591e-15
4.60779e-15
4.63874e-15
4.64767e-15
4.66313e-15
4.65194e-15
4.64578e-15
4.63309e-15
4.65601e-15
4.65102e-15
4.64179e-15
4.65141e-15
4.65209e-15
4.65495e-15
4.65091e-15
4.64985e-15
4.65124e-15
4.6537e-15
4.65629e-15
4.65273e-15
4.65142e-15
4.65247e-15
4.65272e-15
4.65261e-15
4.74381e-15
4.72005e-15
4.71669e-15
4.6542e-15
4.64213e-15
4.59926e-15
4.59198e-15
4.62658e-15
4.62692e-15
4.61966e-15
4.64907e-15
4.64636e-15
4.64404e-15
4.63887e-15
4.64732e-15
4.65667e-15
4.64839e-15
4.64366e-15
4.64265e-15
4.64822e-15
4.64758e-15
4.64156e-15
4.64431e-15
4.64411e-15
4.64283e-15
4.64201e-15
4.64127e-15
4.64076e-15
4.64079e-15
4.64125e-15
4.94361e-15
4.80142e-15
4.71102e-15
4.61069e-15
4.66273e-15
4.63716e-15
4.63835e-15
4.6488e-15
4.62068e-15
4.63484e-15
4.62419e-15
4.6053e-15
4.60906e-15
4.62258e-15
4.60153e-15
4.58051e-15
4.59888e-15
4.60494e-15
4.5951e-15
4.59604e-15
4.59591e-15
4.5943e-15
4.59017e-15
4.5942e-15
4.59574e-15
4.59398e-15
4.59348e-15
4.59406e-15
4.59379e-15
4.59404e-15
4.58104e-15
4.63611e-15
4.56397e-15
4.57542e-15
4.55915e-15
4.56095e-15
4.61521e-15
4.59283e-15
4.62509e-15
4.62635e-15
4.5784e-15
4.56261e-15
4.55678e-15
4.55893e-15
4.57706e-15
4.58664e-15
4.58438e-15
4.57246e-15
4.5793e-15
4.5799e-15
4.57956e-15
4.57983e-15
4.57839e-15
4.57882e-15
4.57851e-15
4.57761e-15
4.57788e-15
4.57805e-15
4.57803e-15
4.57817e-15
4.51507e-15
4.5448e-15
4.49087e-15
4.57937e-15
4.60084e-15
4.61502e-15
4.6011e-15
4.54505e-15
4.55738e-15
4.5513e-15
4.55416e-15
4.54353e-15
4.53072e-15
4.53052e-15
4.53848e-15
4.53537e-15
4.54258e-15
4.54667e-15
4.54427e-15
4.54199e-15
4.54423e-15
4.54607e-15
4.54447e-15
4.54538e-15
4.54403e-15
4.54614e-15
4.54552e-15
4.54473e-15
4.54473e-15
4.54454e-15
4.78268e-15
4.74893e-15
4.71938e-15
4.65176e-15
4.58536e-15
4.59864e-15
4.58745e-15
4.58089e-15
4.57125e-15
4.55385e-15
4.59066e-15
4.58063e-15
4.57594e-15
4.56157e-15
4.5619e-15
4.56795e-15
4.56222e-15
4.55913e-15
4.55616e-15
4.5608e-15
4.56338e-15
4.56708e-15
4.56513e-15
4.56479e-15
4.56415e-15
4.56582e-15
4.5634e-15
4.56355e-15
4.56488e-15
4.56496e-15
4.7366e-15
4.71891e-15
4.62547e-15
4.68624e-15
4.70963e-15
4.64438e-15
4.64539e-15
4.65631e-15
4.6155e-15
4.60937e-15
4.59311e-15
4.6059e-15
4.62339e-15
4.59522e-15
4.58776e-15
4.59248e-15
4.57156e-15
4.58508e-15
4.58456e-15
4.58604e-15
4.58576e-15
4.58369e-15
4.58848e-15
4.5903e-15
4.59112e-15
4.58944e-15
4.58831e-15
4.58857e-15
4.58891e-15
4.58938e-15
4.61226e-15
4.75684e-15
4.651e-15
4.72461e-15
4.64594e-15
4.66562e-15
4.61468e-15
4.62051e-15
4.62547e-15
4.62785e-15
4.6518e-15
4.64663e-15
4.63303e-15
4.64617e-15
4.66336e-15
4.66188e-15
4.65307e-15
4.66116e-15
4.65242e-15
4.64772e-15
4.64092e-15
4.64216e-15
4.64612e-15
4.64692e-15
4.6458e-15
4.64427e-15
4.64554e-15
4.64596e-15
4.64464e-15
4.64436e-15
4.68059e-15
4.67771e-15
4.66682e-15
4.69638e-15
4.72218e-15
4.68104e-15
4.71534e-15
4.70734e-15
4.72637e-15
4.68546e-15
4.67108e-15
4.64826e-15
4.65904e-15
4.66271e-15
4.65137e-15
4.64328e-15
4.65481e-15
4.65939e-15
4.65878e-15
4.64573e-15
4.65237e-15
4.65476e-15
4.65264e-15
4.65249e-15
4.65225e-15
4.65231e-15
4.65308e-15
4.65316e-15
4.65198e-15
4.65218e-15
4.66047e-15
4.79453e-15
4.80827e-15
4.75531e-15
4.70382e-15
4.68938e-15
4.73025e-15
4.69943e-15
4.69746e-15
4.70597e-15
4.74064e-15
4.76833e-15
4.73037e-15
4.72765e-15
4.73151e-15
4.71254e-15
4.71549e-15
4.7134e-15
4.70114e-15
4.7042e-15
4.70773e-15
4.70925e-15
4.71049e-15
4.71463e-15
4.71005e-15
4.70841e-15
4.71012e-15
4.71069e-15
4.71034e-15
4.71023e-15
4.68871e-15
4.74363e-15
4.73996e-15
4.76782e-15
4.76033e-15
4.71658e-15
4.75127e-15
4.71359e-15
4.72514e-15
4.734e-15
4.7403e-15
4.73186e-15
4.73144e-15
4.7545e-15
4.7543e-15
4.75494e-15
4.75184e-15
4.7541e-15
4.74464e-15
4.74154e-15
4.74432e-15
4.74272e-15
4.74428e-15
4.74295e-15
4.74222e-15
4.7413e-15
4.74141e-15
4.74218e-15
4.74241e-15
4.74261e-15
4.69111e-15
4.68154e-15
4.72339e-15
4.79946e-15
4.72245e-15
4.76656e-15
4.77984e-15
4.72643e-15
4.78665e-15
4.79455e-15
4.78188e-15
4.767e-15
4.76738e-15
4.79531e-15
4.79274e-15
4.77284e-15
4.77118e-15
4.77047e-15
4.77232e-15
4.77204e-15
4.77128e-15
4.77339e-15
4.76957e-15
4.77039e-15
4.77214e-15
4.77134e-15
4.77092e-15
4.77085e-15
4.77085e-15
4.77081e-15
4.64608e-15
4.77642e-15
4.63316e-15
4.71671e-15
4.75115e-15
4.7663e-15
4.78458e-15
4.77984e-15