/*--------------------------------*- C++ -*----------------------------------*\
| =========                 |                                                 |
| \\      /  F ield         | OpenFOAM: The Open Source CFD Toolbox           |
|  \\    /   O peration     | Version:  2306                                  |
|   \\  /    A nd           | Website:  www.openfoam.com                      |
|    \\/     M anipulation  |                                                 |
\*---------------------------------------------------------------------------*/
FoamFile
{
    version     2.0;
    format      ascii;
    arch        "LSB;label=32;scalar=64";
    class       volVectorField;
    location    "4320";
    object      U;
}
// * * * * * * * * * * * * * * * * * * * * * * * * * * * * * * * * * * * * * //

dimensions      [0 1 -1 0 0 0 0];

internalField   nonuniform List<vector> 
2800
(
(2.41231e-16 1.66699e-16 1.89166)
(-1.76088e-15 -1.46465e-16 1.90293)
(-7.34239e-16 -2.59684e-17 1.91325)
(-4.40065e-16 -5.95804e-17 1.92223)
(-3.50133e-16 -6.98979e-17 1.92985)
(-3.25907e-16 -9.49428e-17 1.93612)
(-2.71997e-16 -9.80493e-17 1.94108)
(-2.22916e-16 -1.55554e-16 1.94477)
(-1.85095e-16 -1.50041e-16 1.94721)
(-1.58897e-16 -1.19037e-16 1.94843)
(-1.95146e-16 -7.70881e-17 1.94843)
(-2.13996e-16 -8.09526e-17 1.94721)
(-1.66866e-16 -1.36133e-16 1.94477)
(-9.65715e-17 -1.99111e-16 1.94108)
(-2.94369e-17 -2.23284e-16 1.93612)
(-5.12212e-18 -1.90595e-16 1.92985)
(-3.34311e-18 -1.33927e-16 1.92223)
(-8.23175e-18 -1.28245e-16 1.91325)
(-8.41778e-17 -1.25804e-16 1.90293)
(-1.41325e-16 -1.55062e-16 1.89166)
(-4.41715e-17 -1.80246e-15 1.90296)
(-6.50029e-16 -6.92597e-16 1.91752)
(-5.94109e-16 -3.34696e-16 1.92985)
(-4.04709e-16 -1.94683e-16 1.94037)
(-3.37555e-16 -1.53868e-16 1.94921)
(-2.90985e-16 -1.4001e-16 1.95646)
(-2.81309e-16 -1.21011e-16 1.96218)
(-2.38568e-16 -1.47737e-16 1.96642)
(-1.49352e-16 -1.76181e-16 1.96922)
(-1.21529e-16 -1.74888e-16 1.97061)
(-1.77129e-16 -1.86803e-16 1.97061)
(-2.18363e-16 -1.14054e-16 1.96922)
(-2.31358e-16 -6.32568e-17 1.96642)
(-1.68063e-16 -1.05414e-16 1.96218)
(-3.56751e-17 -1.41066e-16 1.95646)
(3.78012e-17 -1.58871e-16 1.94921)
(2.75942e-17 -1.14783e-16 1.94037)
(-5.11639e-17 -1.03157e-16 1.92985)
(-1.11789e-16 -1.33469e-16 1.91752)
(-9.63028e-17 -1.46105e-16 1.90296)
(2.35902e-17 -8.2833e-16 1.91329)
(-2.91986e-16 -6.8031e-16 1.92987)
(-3.42697e-16 -4.05462e-16 1.94391)
(-3.12224e-16 -2.92189e-16 1.95575)
(-2.98128e-16 -2.14606e-16 1.96561)
(-2.73368e-16 -1.74932e-16 1.97365)
(-2.57654e-16 -1.74547e-16 1.97995)
(-2.53681e-16 -9.65628e-17 1.98461)
(-1.95044e-16 -1.76531e-16 1.98769)
(-1.53017e-16 -2.18566e-16 1.98922)
(-1.1052e-16 -2.31935e-16 1.98922)
(-6.6074e-17 -1.2408e-16 1.98769)
(-1.41064e-16 -1.12171e-16 1.98461)
(-1.61697e-16 -8.27067e-17 1.97995)
(-8.16454e-17 -1.07079e-16 1.97365)
(-3.04499e-18 -1.04039e-16 1.96561)
(2.15748e-18 -8.11025e-17 1.95575)
(-8.22885e-17 -8.40491e-17 1.94391)
(-1.30661e-16 -1.26035e-16 1.92987)
(-9.58389e-17 -1.41287e-16 1.91329)
(-2.23033e-17 -5.75632e-16 1.92228)
(-1.57069e-16 -5.2739e-16 1.9404)
(-2.20402e-16 -4.05544e-16 1.95576)
(-2.31289e-16 -3.51954e-16 1.96866)
(-2.23422e-16 -3.13751e-16 1.97934)
(-2.43003e-16 -2.71007e-16 1.988)
(-1.89387e-16 -2.92567e-16 1.99476)
(-2.19299e-16 -2.13757e-16 1.99975)
(-2.59767e-16 -1.95952e-16 2.00303)
(-1.68982e-16 -1.61656e-16 2.00465)
(-6.75746e-17 -1.12473e-16 2.00465)
(-8.0039e-17 -1.21728e-16 2.00303)
(-1.6443e-16 -2.17673e-16 1.99975)
(-1.381e-16 -2.11291e-16 1.99476)
(-4.33624e-17 -2.1697e-16 1.988)
(4.69981e-17 -1.54407e-16 1.97934)
(7.4981e-18 -1.006e-16 1.96866)
(-1.22968e-16 -1.39465e-16 1.95576)
(-1.57275e-16 -1.8091e-16 1.9404)
(-8.82018e-17 -1.59397e-16 1.92228)
(-5.42711e-17 -5.08777e-16 1.92989)
(-8.92769e-17 -4.37509e-16 1.94924)
(-1.75874e-16 -3.82937e-16 1.96563)
(-2.27936e-16 -3.28177e-16 1.97935)
(-2.17736e-16 -3.0457e-16 1.99067)
(-2.51795e-16 -3.07587e-16 1.9998)
(-1.91759e-16 -2.94616e-16 2.00691)
(-1.4168e-16 -3.05614e-16 2.01213)
(-1.28189e-16 -2.26424e-16 2.01556)
(-6.46434e-17 -2.07626e-16 2.01726)
(-7.02619e-17 -1.77079e-16 2.01726)
(-1.6957e-16 -2.1713e-16 2.01556)
(-2.1389e-16 -2.18235e-16 2.01213)
(-1.3136e-16 -1.64491e-16 2.00691)
(2.21619e-18 -2.33888e-16 1.9998)
(1.14148e-16 -2.13369e-16 1.99067)
(-2.94745e-18 -2.07641e-16 1.97935)
(-1.63423e-16 -2.17534e-16 1.96563)
(-1.22458e-16 -1.77441e-16 1.94924)
(-6.33372e-17 -1.60415e-16 1.92989)
(-1.38599e-17 -3.8856e-16 1.93616)
(-3.73163e-17 -3.84121e-16 1.95649)
(-1.17163e-16 -3.68732e-16 1.97366)
(-1.58452e-16 -3.28531e-16 1.98801)
(-1.96342e-16 -2.39268e-16 1.99981)
(-2.25672e-16 -2.60053e-16 2.00929)
(-1.79302e-16 -2.09778e-16 2.01666)
(-1.38863e-16 -2.24786e-16 2.02205)
(-1.4471e-16 -2.07522e-16 2.02558)
(-1.13147e-16 -2.51646e-16 2.02733)
(-7.80561e-17 -3.1651e-16 2.02733)
(-1.15244e-16 -3.22919e-16 2.02558)
(-9.51003e-17 -2.21894e-16 2.02205)
(-1.32009e-16 -1.29265e-16 2.01666)
(-7.52269e-17 -1.77573e-16 2.00929)
(6.55032e-17 -1.60144e-16 1.99981)
(-1.64343e-17 -2.08717e-16 1.98801)
(-9.55067e-17 -1.50026e-16 1.97366)
(-9.16184e-17 -6.5302e-17 1.95649)
(-9.14473e-17 -5.41187e-17 1.93616)
(-8.22915e-17 -2.7971e-16 1.94112)
(-7.1434e-17 -2.72537e-16 1.96221)
(-1.32032e-16 -3.38824e-16 1.97997)
(-1.19909e-16 -4.11826e-16 1.99478)
(-1.56053e-16 -3.30294e-16 2.00692)
(-2.17683e-16 -3.13427e-16 2.01666)
(-1.55497e-16 -3.2349e-16 2.0242)
(-1.32335e-16 -2.91604e-16 2.02971)
(-1.49143e-16 -2.5065e-16 2.03332)
(-1.71706e-16 -2.21374e-16 2.0351)
(-1.37093e-16 -2.90878e-16 2.0351)
(-6.19897e-17 -2.61036e-16 2.03332)
(-9.22578e-18 -1.71771e-16 2.02971)
(-7.87346e-17 -1.4306e-16 2.0242)
(-2.7477e-17 -1.12687e-16 2.01666)
(7.04213e-17 -1.17861e-16 2.00692)
(-1.95004e-17 -1.16117e-16 1.99478)
(-4.51173e-17 -8.42697e-17 1.97997)
(-4.79002e-17 -4.65325e-17 1.96221)
(-1.20968e-16 -4.65732e-17 1.94112)
(-3.91621e-17 -2.30454e-16 1.9448)
(-9.95847e-17 -2.23882e-16 1.96645)
(-2.64681e-16 -2.42902e-16 1.98464)
(-1.7499e-16 -2.84058e-16 1.99976)
(-1.23195e-16 -2.81936e-16 2.01214)
(-2.31953e-16 -2.98819e-16 2.02205)
(-1.73611e-16 -3.48945e-16 2.02972)
(-7.41745e-17 -3.47305e-16 2.03531)
(-7.44436e-17 -2.6517e-16 2.03896)
(-1.49569e-16 -2.45004e-16 2.04076)
(-1.13691e-16 -1.8653e-16 2.04076)
(7.32434e-18 -1.59011e-16 2.03896)
(2.05814e-17 -1.31054e-16 2.03531)
(-7.20438e-17 -1.0209e-16 2.02972)
(-5.04791e-17 -8.87631e-17 2.02205)
(4.81064e-17 -1.1789e-16 2.01214)
(-6.78537e-18 -1.37598e-16 1.99976)
(-3.82213e-17 -1.34547e-16 1.98464)
(-6.61556e-17 -9.69319e-17 1.96645)
(-1.20576e-16 -7.90961e-17 1.9448)
(-7.31109e-17 -2.40601e-16 1.94725)
(-8.71108e-17 -2.91612e-16 1.96925)
(-1.96461e-16 -2.71622e-16 1.98771)
(-1.74476e-16 -2.18359e-16 2.00304)
(-1.85158e-16 -2.66772e-16 2.01557)
(-2.93231e-16 -2.70046e-16 2.02559)
(-2.18086e-16 -2.52927e-16 2.03332)
(-6.12035e-17 -3.00468e-16 2.03896)
(-5.05831e-17 -2.59517e-16 2.04264)
(-8.96173e-17 -2.43984e-16 2.04446)
(-4.79708e-17 -1.56129e-16 2.04446)
(-8.94044e-18 -1.60194e-16 2.04264)
(3.85739e-17 -2.12855e-16 2.03896)
(-4.33432e-17 -1.66924e-16 2.03332)
(-4.28481e-17 -1.44395e-16 2.02559)
(2.1187e-17 -2.05792e-16 2.01557)
(-3.40652e-17 -2.60424e-16 2.00304)
(5.30697e-19 -2.00515e-16 1.98771)
(1.1906e-17 -1.90982e-16 1.96925)
(-9.99946e-17 -1.43977e-16 1.94725)
(-1.13087e-16 -2.5963e-16 1.94846)
(-1.49537e-16 -2.55703e-16 1.97064)
(-2.12916e-16 -3.192e-16 1.98924)
(-1.88739e-16 -2.84152e-16 2.00467)
(-1.85233e-16 -3.28047e-16 2.01727)
(-2.27194e-16 -2.73419e-16 2.02734)
(-2.1506e-16 -1.5123e-16 2.03511)
(-9.02862e-17 -1.8938e-16 2.04077)
(-2.46134e-17 -2.25108e-16 2.04446)
(-4.63644e-17 -2.06388e-16 2.04628)
(-2.92599e-17 -1.80083e-16 2.04628)
(-5.02886e-17 -1.89043e-16 2.04446)
(1.11285e-17 -2.14277e-16 2.04077)
(-1.74613e-18 -2.3781e-16 2.03511)
(-7.70989e-17 -1.83863e-16 2.02734)
(-4.88531e-17 -3.22138e-16 2.01727)
(2.06146e-17 -3.04568e-16 2.00467)
(5.72904e-17 -2.46098e-16 1.98924)
(9.73483e-18 -2.69313e-16 1.97064)
(-6.08268e-17 -2.77556e-16 1.94846)
(-7.32773e-17 -2.31405e-16 1.94846)
(-1.70311e-16 -2.51132e-16 1.97064)
(-2.49035e-16 -2.72517e-16 1.98924)
(-2.14418e-16 -2.73406e-16 2.00467)
(-1.97228e-16 -2.76366e-16 2.01727)
(-1.33882e-16 -2.1366e-16 2.02734)
(-1.46175e-16 -1.27867e-16 2.03511)
(-1.41303e-16 -1.63533e-16 2.04077)
(-7.24562e-17 -2.02663e-16 2.04446)
(-4.62553e-17 -1.92418e-16 2.04628)
(-3.07273e-17 -1.33183e-16 2.04628)
(-4.16238e-17 -2.19605e-16 2.04446)
(-5.09423e-18 -2.134e-16 2.04077)
(-3.71909e-18 -2.60169e-16 2.03511)
(-1.02693e-16 -2.36371e-16 2.02734)
(-7.0897e-17 -3.49181e-16 2.01727)
(7.28897e-17 -2.62521e-16 2.00467)
(7.10748e-17 -2.61323e-16 1.98924)
(1.81339e-17 -2.75589e-16 1.97064)
(1.34012e-17 -3.01889e-16 1.94846)
(-1.5524e-16 -1.77994e-16 1.94725)
(-2.19092e-16 -2.3352e-16 1.96925)
(-2.64905e-16 -2.31566e-16 1.98771)
(-2.25112e-16 -2.08605e-16 2.00304)
(-1.5367e-16 -2.04997e-16 2.01557)
(-1.0033e-16 -1.87566e-16 2.02559)
(-1.80144e-16 -1.9473e-16 2.03332)
(-1.73162e-16 -2.29515e-16 2.03896)
(-5.82382e-17 -2.21359e-16 2.04264)
(2.22484e-17 -1.82816e-16 2.04446)
(-5.54106e-17 -8.16276e-17 2.04446)
(-1.28104e-16 -1.08511e-16 2.04264)
(-1.93627e-17 -1.56428e-16 2.03896)
(-8.00233e-18 -1.69312e-16 2.03332)
(-1.37378e-16 -1.94142e-16 2.02559)
(-4.9085e-17 -2.21256e-16 2.01557)
(1.40066e-16 -2.24271e-16 2.00304)
(8.02064e-17 -2.34456e-16 1.98771)
(7.42654e-18 -2.56647e-16 1.96925)
(6.14712e-17 -2.31021e-16 1.94725)
(-1.28116e-16 -1.90875e-16 1.9448)
(-2.52055e-16 -1.39898e-16 1.96645)
(-2.5924e-16 -1.34752e-16 1.98464)
(-2.20656e-16 -1.16266e-16 1.99976)
(-2.02263e-16 -1.55094e-16 2.01214)
(-1.47651e-16 -1.82111e-16 2.02205)
(-2.08237e-16 -2.31758e-16 2.02972)
(-1.83299e-16 -1.33387e-16 2.03531)
(-3.0748e-17 -1.53739e-16 2.03896)
(9.64263e-17 -1.36157e-16 2.04076)
(4.71764e-17 -8.51258e-17 2.04076)
(-1.16074e-16 2.97213e-17 2.03896)
(-6.15732e-17 1.73415e-19 2.03531)
(-2.74422e-17 -5.29733e-17 2.02972)
(-1.38977e-16 -7.69141e-17 2.02205)
(-8.43667e-17 -2.85675e-17 2.01214)
(8.63747e-17 -9.92701e-17 1.99976)
(7.60732e-17 -1.51201e-16 1.98464)
(5.19257e-17 -1.43198e-16 1.96645)
(1.23556e-16 -5.87072e-17 1.9448)
(-7.61832e-17 -2.2432e-16 1.94112)
(-1.98875e-16 -1.28579e-16 1.96221)
(-2.66302e-16 -9.40126e-17 1.97997)
(-2.68955e-16 -8.76911e-17 1.99478)
(-2.41826e-16 -5.53066e-17 2.00692)
(-2.05697e-16 1.48874e-17 2.01666)
(-1.57117e-16 -2.24881e-17 2.0242)
(-1.11962e-16 2.78123e-17 2.02971)
(-6.26016e-17 2.71781e-17 2.03332)
(9.97579e-17 -2.65345e-17 2.0351)
(1.18251e-16 -1.195e-16 2.0351)
(-4.69018e-17 -2.49293e-17 2.03332)
(-1.10353e-16 2.60253e-17 2.02971)
(-8.80155e-17 -2.01902e-18 2.0242)
(-1.19004e-16 -3.6987e-18 2.01666)
(-7.94756e-17 -6.86176e-18 2.00692)
(2.53681e-17 -4.0318e-17 1.99478)
(5.47009e-17 -1.07905e-16 1.97997)
(1.02705e-16 -9.33829e-17 1.96221)
(1.2582e-16 -4.81679e-17 1.94112)
(-3.99022e-17 -2.07358e-16 1.93616)
(-1.61238e-16 -1.79058e-16 1.95649)
(-2.40813e-16 -1.42845e-16 1.97366)
(-1.90704e-16 -1.49044e-16 1.98801)
(-1.06243e-16 -1.00909e-16 1.99981)
(-1.25383e-16 -1.90095e-17 2.00929)
(-2.0802e-16 -1.03224e-17 2.01666)
(-1.39486e-16 -3.52515e-18 2.02205)
(-8.05436e-17 2.41189e-17 2.02558)
(-3.77757e-17 3.09113e-17 2.02733)
(6.3035e-17 -1.55935e-17 2.02733)
(3.19991e-17 -8.00761e-18 2.02558)
(-4.69671e-17 4.176e-17 2.02205)
(-7.01639e-17 4.42858e-17 2.01666)
(-1.65843e-16 3.26291e-17 2.00929)
(-1.49127e-16 1.07634e-17 1.99981)
(-2.70841e-17 -4.52943e-17 1.98801)
(2.5244e-17 -5.83069e-17 1.97366)
(1.05144e-16 -9.05451e-17 1.95649)
(1.28824e-16 -7.5551e-17 1.93616)
(-1.05871e-16 -1.79714e-16 1.92989)
(-1.78142e-16 -2.03712e-16 1.94924)
(-2.62633e-16 -1.58678e-16 1.96563)
(-2.26859e-16 -2.09654e-16 1.97935)
(-1.11168e-16 -1.97635e-16 1.99067)
(-1.22057e-16 -1.5899e-16 1.9998)
(-1.45983e-16 -1.22906e-16 2.00691)
(-6.86038e-17 -6.05763e-17 2.01213)
(-1.1756e-17 -2.8608e-17 2.01556)
(8.59287e-17 3.71871e-17 2.01726)
(1.04733e-16 8.66892e-17 2.01726)
(1.98706e-17 3.96067e-17 2.01556)
(-6.49303e-17 5.61364e-17 2.01213)
(-1.10685e-16 3.44856e-17 2.00691)
(-1.79439e-16 -1.05768e-18 1.9998)
(-1.89805e-16 7.57571e-17 1.99067)
(-6.68896e-17 4.30276e-17 1.97935)
(9.46829e-18 4.3212e-17 1.96563)
(9.39075e-17 2.89654e-17 1.94924)
(1.74936e-16 -1.95191e-17 1.92989)
(-1.62539e-16 -1.82846e-16 1.92228)
(-1.95333e-16 -1.76289e-16 1.9404)
(-2.95485e-16 -1.17584e-16 1.95576)
(-2.53415e-16 -8.06608e-17 1.96866)
(-7.50843e-17 -2.79107e-17 1.97934)
(-6.81391e-17 -5.12616e-17 1.988)
(-1.21639e-16 -1.28865e-17 1.99476)
(-3.6802e-17 -2.88474e-17 1.99975)
(4.08775e-17 -1.46197e-17 2.00303)
(1.09423e-16 5.553e-18 2.00465)
(9.27205e-17 -3.21855e-17 2.00465)
(1.48487e-17 -5.22455e-17 2.00303)
(-5.61129e-17 -3.15402e-17 1.99975)
(-1.4596e-16 -4.04416e-17 1.99476)
(-1.56698e-16 -5.20476e-17 1.988)
(-1.48848e-16 3.50927e-17 1.97934)
(-1.03021e-16 4.36938e-17 1.96866)
(-1.7637e-17 4.31597e-17 1.95576)
(4.08965e-17 1.01496e-16 1.9404)
(8.27256e-17 8.46919e-18 1.92228)
(-1.48814e-16 -1.94718e-16 1.91329)
(-1.83172e-16 -1.23708e-16 1.92987)
(-2.23565e-16 -7.26391e-17 1.94391)
(-1.65368e-16 4.14928e-17 1.95575)
(-9.96549e-17 5.33465e-17 1.96561)
(-1.37423e-16 -1.50676e-17 1.97365)
(-1.37289e-16 -4.34886e-17 1.97995)
(-5.49728e-17 -2.1708e-17 1.98461)
(5.56078e-17 -2.01207e-17 1.98769)
(1.08666e-16 -5.76081e-17 1.98922)
(7.79807e-17 -1.17158e-16 1.98922)
(3.68937e-17 -1.12721e-16 1.98769)
(-5.49937e-17 -1.34224e-16 1.98461)
(-1.52495e-16 -1.37411e-16 1.97995)
(-1.36441e-16 -9.83717e-17 1.97365)
(-1.40822e-16 -1.13062e-17 1.96561)
(-1.18899e-16 -1.13542e-17 1.95575)
(8.01386e-18 -5.99275e-18 1.94391)
(2.08631e-17 2.53726e-17 1.92987)
(-6.29885e-18 5.36182e-18 1.91329)
(-1.25525e-16 -1.31441e-16 1.90296)
(-1.2849e-16 -9.27946e-17 1.91752)
(-1.65885e-16 -1.83685e-17 1.92985)
(-1.40334e-16 5.31315e-17 1.94037)
(-1.32392e-16 -2.90389e-17 1.94921)
(-1.85793e-16 -1.91815e-17 1.95646)
(-1.2377e-16 -2.84063e-17 1.96218)
(1.3416e-17 3.37022e-17 1.96642)
(4.1437e-17 -2.83406e-18 1.96922)
(4.83354e-17 -3.3182e-17 1.97061)
(7.02522e-17 -7.42307e-17 1.97061)
(1.97254e-17 -9.9918e-17 1.96922)
(-7.41097e-17 -1.44e-16 1.96642)
(-1.17516e-16 -1.37722e-16 1.96218)
(-3.92862e-17 -9.12004e-17 1.95646)
(-9.39237e-17 -5.37421e-17 1.94921)
(-1.59253e-16 -6.28432e-18 1.94037)
(-4.01225e-17 4.42303e-18 1.92985)
(3.34126e-18 -2.9972e-17 1.91752)
(-2.62243e-17 -1.03129e-17 1.90296)
(-9.16412e-17 -6.48923e-17 1.89166)
(-8.81983e-17 -9.6734e-17 1.90293)
(-8.70353e-17 -6.7018e-17 1.91325)
(-1.6004e-16 -5.02769e-17 1.92223)
(-1.72032e-16 -7.15761e-17 1.92985)
(-1.44991e-16 -2.16278e-17 1.93612)
(-6.89483e-17 2.50811e-17 1.94108)
(-2.74467e-18 5.18461e-17 1.94477)
(1.74151e-17 -3.30323e-17 1.94721)
(7.40991e-17 -1.83039e-17 1.94843)
(4.42544e-17 -5.03892e-17 1.94843)
(-7.93091e-18 -6.74346e-17 1.94721)
(-7.67698e-17 -7.33439e-17 1.94477)
(-9.59176e-17 -3.82958e-17 1.94108)
(-4.22375e-17 -3.46143e-17 1.93612)
(-5.3128e-17 -8.07553e-17 1.92985)
(-8.76282e-17 1.06358e-17 1.92223)
(-6.86001e-17 1.73609e-17 1.91325)
(-1.38945e-17 1.53052e-17 1.90293)
(-2.96539e-18 2.09945e-17 1.89166)
(-8.63282e-17 -1.46475e-16 1.86968)
(-3.27548e-17 -1.49961e-16 1.84063)
(-1.73859e-17 -1.60973e-16 1.81036)
(-1.6375e-17 -1.79581e-16 1.77901)
(-2.98014e-17 -1.75121e-16 1.74664)
(-6.53667e-17 -1.53979e-16 1.71325)
(-1.21547e-16 -1.07495e-16 1.67882)
(-1.41553e-16 -7.98732e-17 1.64323)
(-1.57192e-16 -6.59899e-17 1.60636)
(-2.06962e-16 -2.62068e-17 1.56801)
(-2.40974e-16 2.43505e-19 1.52793)
(-2.33869e-16 1.39263e-18 1.48577)
(-2.17783e-16 -1.53287e-18 1.44113)
(-1.9534e-16 -1.08386e-17 1.39347)
(-1.58934e-16 -3.35447e-17 1.3421)
(-1.27754e-16 -5.2053e-17 1.28618)
(-1.04402e-16 -6.11904e-17 1.22462)
(-7.96492e-17 -7.14897e-17 1.15607)
(-5.70205e-17 -7.9094e-17 1.07892)
(-4.8743e-17 -7.28079e-17 0.991464)
(-5.15065e-17 -5.64208e-17 0.892708)
(-5.10131e-17 -4.32399e-17 0.784052)
(-4.29674e-17 -3.68025e-17 0.671643)
(-3.27336e-17 -3.30971e-17 0.561534)
(-2.3933e-17 -2.90741e-17 0.45605)
(-1.79746e-17 -2.33398e-17 0.356714)
(-1.34654e-17 -1.71384e-17 0.264511)
(-9.23223e-18 -1.16157e-17 0.179902)
(-5.48945e-18 -6.71885e-18 0.102892)
(-1.25124e-18 -2.11308e-18 0.0331393)
(-1.78429e-17 -1.31346e-16 1.88085)
(-3.48742e-17 -1.56084e-16 1.85209)
(-5.199e-17 -1.4547e-16 1.82213)
(-5.21379e-17 -1.78156e-16 1.79107)
(-6.82074e-17 -1.84798e-16 1.75898)
(-1.10873e-16 -1.74867e-16 1.72587)
(-1.07606e-16 -1.8517e-16 1.69172)
(-1.09352e-16 -1.79542e-16 1.65645)
(-1.38109e-16 -1.67059e-16 1.61993)
(-1.51628e-16 -1.47119e-16 1.58197)
(-1.36985e-16 -1.34134e-16 1.54234)
(-1.11498e-16 -1.28809e-16 1.50073)
(-1.08766e-16 -1.13393e-16 1.45673)
(-1.12299e-16 -9.55257e-17 1.40984)
(-1.03807e-16 -8.99717e-17 1.35941)
(-7.70409e-17 -9.94646e-17 1.30462)
(-6.41746e-17 -1.00463e-16 1.24442)
(-7.16486e-17 -8.73458e-17 1.17748)
(-7.32565e-17 -7.8225e-17 1.10221)
(-6.87189e-17 -7.31211e-17 1.01679)
(-6.3958e-17 -6.64225e-17 0.91978)
(-5.60018e-17 -6.05786e-17 0.811707)
(-4.26868e-17 -5.78022e-17 0.697739)
(-3.54814e-17 -5.01841e-17 0.584537)
(-3.46802e-17 -3.81647e-17 0.475478)
(-3.1209e-17 -2.82227e-17 0.372334)
(-2.38988e-17 -2.15814e-17 0.2763)
(-1.56136e-17 -1.58637e-17 0.188002)
(-8.58812e-18 -1.00049e-17 0.107548)
(-2.67956e-18 -3.1463e-18 0.0346435)
(-8.17666e-17 -1.34146e-16 1.89044)
(-8.31139e-17 -1.63913e-16 1.86205)
(-7.07941e-17 -1.6019e-16 1.8324)
(-6.80144e-17 -1.60563e-16 1.80162)
(-4.54676e-17 -1.85475e-16 1.76978)
(-5.65333e-17 -1.88878e-16 1.73693)
(-7.03307e-17 -1.88619e-16 1.70303)
(-8.36696e-17 -1.791e-16 1.66803)
(-6.45912e-17 -1.83409e-16 1.6318)
(-2.87519e-17 -1.94191e-16 1.59419)
(-3.01461e-17 -1.79004e-16 1.55495)
(-5.88492e-17 -1.5604e-16 1.51379)
(-8.66268e-17 -1.38852e-16 1.47034)
(-1.04581e-16 -1.2702e-16 1.42409)
(-1.06108e-16 -1.20324e-16 1.37445)
(-1.02698e-16 -1.17058e-16 1.32059)
(-1.02864e-16 -1.16124e-16 1.26152)
(-9.52207e-17 -1.20273e-16 1.19594)
(-8.22866e-17 -1.2644e-16 1.12225)
(-7.55245e-17 -1.27185e-16 1.03856)
(-7.63285e-17 -1.19709e-16 0.943148)
(-7.41995e-17 -1.10946e-16 0.835817)
(-7.17114e-17 -9.92309e-17 0.720714)
(-7.25418e-17 -8.27402e-17 0.604888)
(-6.46794e-17 -7.01435e-17 0.492734)
(-5.07901e-17 -5.9916e-17 0.386245)
(-3.74616e-17 -4.8223e-17 0.286818)
(-2.53371e-17 -3.48797e-17 0.195235)
(-1.38121e-17 -2.04243e-17 0.111707)
(-5.24641e-18 -8.30739e-18 0.0359863)
(-8.79255e-17 -1.70439e-16 1.89873)
(-7.34606e-17 -1.55515e-16 1.87067)
(-5.02132e-17 -1.67449e-16 1.84129)
(-4.82231e-17 -1.4744e-16 1.81075)
(-6.05386e-17 -1.26115e-16 1.77914)
(-7.42415e-17 -1.00844e-16 1.74651)
(-2.99095e-17 -1.03018e-16 1.71283)
(2.20498e-18 -1.14737e-16 1.67807)
(5.46168e-18 -1.09557e-16 1.6421)
(1.76562e-17 -1.08013e-16 1.60477)
(1.4357e-17 -1.01695e-16 1.56586)
(-1.22734e-17 -8.79827e-17 1.5251)
(-3.17034e-17 -7.82994e-17 1.4821)
(-1.5839e-17 -8.30755e-17 1.43641)
(6.83987e-18 -8.58205e-17 1.38742)
(-4.01223e-19 -7.23059e-17 1.33436)
(-1.60818e-17 -5.58804e-17 1.27624)
(-1.86352e-17 -4.70454e-17 1.21178)
(-1.64348e-17 -4.00584e-17 1.13941)
(-1.30306e-17 -3.51446e-17 1.05718)
(-6.2442e-18 -3.2818e-17 0.963175)
(-1.75704e-18 -2.83911e-17 0.85663)
(-1.65804e-18 -2.2973e-17 0.740712)
(-5.10228e-18 -1.66816e-17 0.622685)
(-1.43906e-17 -7.81969e-18 0.507881)
(-1.69952e-17 -2.91875e-18 0.398494)
(-9.10713e-18 -4.08691e-18 0.296099)
(-4.61375e-18 -3.4257e-18 0.201625)
(-1.42739e-18 -1.5308e-18 0.115383)
(-1.74706e-18 -1.5173e-18 0.0371738)
(-9.65888e-17 -1.85593e-16 1.90576)
(-8.26281e-17 -2.04839e-16 1.87797)
(-6.35842e-17 -2.03166e-16 1.84884)
(-2.47397e-17 -1.78464e-16 1.81851)
(9.27676e-18 -1.64396e-16 1.7871)
(9.65432e-18 -1.36162e-16 1.75465)
(-3.51128e-17 -9.48393e-17 1.72117)
(-6.99275e-17 -7.8105e-17 1.6866)
(-3.23534e-17 -8.36055e-17 1.65085)
(-9.05489e-19 -9.09672e-17 1.61376)
(-2.53556e-17 -7.74159e-17 1.57514)
(-6.71724e-17 -5.92412e-17 1.5347)
(-7.6804e-17 -5.37675e-17 1.49209)
(-5.38407e-17 -6.32433e-17 1.44686)
(-3.37875e-17 -7.39143e-17 1.39842)
(-4.16977e-17 -7.29965e-17 1.34602)
(-5.64986e-17 -6.65413e-17 1.28868)
(-4.72134e-17 -7.02225e-17 1.22516)
(-3.67585e-17 -7.46975e-17 1.15387)
(-4.40131e-17 -7.12963e-17 1.07287)
(-4.16997e-17 -7.18288e-17 0.980056)
(-3.83837e-17 -7.09116e-17 0.874265)
(-4.59912e-17 -6.26653e-17 0.757773)
(-4.53301e-17 -5.62711e-17 0.637928)
(-3.50603e-17 -5.22235e-17 0.520898)
(-2.55433e-17 -4.5695e-17 0.409049)
(-1.9351e-17 -3.62988e-17 0.304111)
(-1.3531e-17 -2.59466e-17 0.207148)
(-8.19097e-18 -1.50444e-17 0.118563)
(-2.68613e-18 -5.69238e-18 0.0382011)
(-9.76223e-17 -1.09189e-16 1.91156)
(-5.62045e-17 -1.50581e-16 1.88401)
(4.67845e-17 -1.52198e-16 1.85508)
(6.76755e-17 -1.31192e-16 1.82493)
(3.33516e-17 -1.40879e-16 1.79368)
(1.68144e-17 -1.30577e-16 1.76139)
(2.73781e-18 -1.26299e-16 1.72805)
(1.02426e-17 -1.21015e-16 1.69364)
(2.02118e-17 -1.17247e-16 1.65806)
(2.00478e-17 -1.17554e-16 1.62118)
(2.07205e-18 -1.13322e-16 1.58278)
(-3.11467e-17 -9.33841e-17 1.5426)
(-5.5959e-17 -7.50941e-17 1.50031)
(-5.69526e-17 -7.14668e-17 1.45545)
(-4.24902e-17 -7.81845e-17 1.40745)
(-3.04655e-17 -8.49808e-17 1.35558)
(-2.60496e-17 -8.75653e-17 1.29888)
(-3.38541e-17 -8.45298e-17 1.23612)
(-4.40151e-17 -8.21483e-17 1.16573)
(-4.86638e-17 -8.03588e-17 1.08573)
(-4.34126e-17 -8.03626e-17 0.993931)
(-3.44181e-17 -8.01858e-17 0.888839)
(-3.09344e-17 -7.6406e-17 0.771964)
(-3.01671e-17 -6.92619e-17 0.650656)
(-2.6052e-17 -6.12266e-17 0.531802)
(-2.13295e-17 -5.14431e-17 0.417912)
(-1.61875e-17 -4.0264e-17 0.310852)
(-1.07067e-17 -2.81305e-17 0.2118)
(-5.55695e-18 -1.53045e-17 0.121242)
(-2.78606e-18 -6.56703e-18 0.0390671)
(-1.46935e-16 -6.32099e-17 1.91615)
(-3.20027e-17 -5.6183e-17 1.8888)
(6.03958e-17 -5.87024e-17 1.86004)
(1.90324e-17 -4.07137e-17 1.83004)
(2.44507e-17 -1.68845e-17 1.79891)
(5.36358e-17 -1.81768e-17 1.76673)
(2.73973e-17 4.05515e-18 1.73351)
(2.6603e-17 2.94132e-17 1.69922)
(4.55384e-17 3.96936e-17 1.66377)
(5.66495e-17 4.91412e-17 1.62702)
(7.33835e-17 4.22215e-17 1.58878)
(8.20141e-17 3.60937e-17 1.5488)
(5.30262e-17 4.37034e-17 1.50672)
(2.99576e-17 5.14105e-17 1.46213)
(3.50348e-17 5.05667e-17 1.41445)
(5.12741e-17 4.91186e-17 1.36297)
(6.78986e-17 4.84735e-17 1.30674)
(7.27645e-17 5.09028e-17 1.24456)
(6.87332e-17 5.3734e-17 1.17485)
(6.25732e-17 5.60121e-17 1.09567)
(5.43508e-17 5.76981e-17 1.00475)
(3.88925e-17 6.00197e-17 0.900384)
(2.67559e-17 5.88426e-17 0.783571)
(2.67061e-17 5.20531e-17 0.661346)
(2.68041e-17 4.41124e-17 0.540996)
(2.11746e-17 3.71077e-17 0.425406)
(1.29087e-17 3.06148e-17 0.31656)
(7.92052e-18 2.36351e-17 0.215743)
(5.14191e-18 1.66073e-17 0.123514)
(9.58004e-19 3.74996e-18 0.0398012)
(-8.95502e-17 -8.09098e-17 1.91958)
(-6.492e-18 -4.10548e-17 1.89237)
(5.97143e-17 -7.59471e-17 1.86374)
(8.53065e-17 -8.9827e-17 1.83384)
(4.41568e-17 -5.74959e-17 1.80281)
(1.0216e-17 -4.20018e-17 1.77072)
(3.42132e-17 -3.76746e-17 1.73758)
(1.79946e-17 -1.98031e-17 1.70337)
(-2.20819e-17 9.32666e-18 1.668)
(-8.81951e-17 3.56611e-17 1.63135)
(-1.62169e-16 6.28185e-17 1.59322)
(-1.78034e-16 6.99612e-17 1.55335)
(-1.68694e-16 7.38921e-17 1.51143)
(-1.5695e-16 8.37668e-17 1.46702)
(-1.20883e-16 8.73954e-17 1.41956)
(-7.37834e-17 8.47628e-17 1.36836)
(-4.74369e-17 8.60774e-17 1.31247)
(-5.28623e-17 9.12302e-17 1.25071)
(-6.6896e-17 9.72991e-17 1.18152)
(-6.36142e-17 9.80285e-17 1.10296)
(-4.55988e-17 9.4297e-17 1.01274)
(-2.74532e-17 8.83709e-17 0.908982)
(-1.80034e-17 8.16971e-17 0.792357)
(-5.46158e-18 7.17894e-17 0.669545)
(2.2069e-18 6.06774e-17 0.548071)
(3.57059e-18 4.94828e-17 0.431184)
(4.55116e-18 3.78048e-17 0.320968)
(4.6211e-18 2.61724e-17 0.218789)
(2.90534e-18 1.53968e-17 0.125269)
(9.85767e-19 4.80718e-18 0.0403686)
(-1.04785e-16 -1.45836e-16 1.92184)
(-4.6671e-17 -1.43897e-16 1.89474)
(-2.7568e-17 -1.38e-16 1.86619)
(3.45551e-18 -1.3226e-16 1.83637)
(2.8118e-17 -1.55059e-16 1.8054)
(2.11214e-17 -1.37809e-16 1.77336)
(-2.63161e-18 -1.4728e-16 1.74027)
(2.36759e-17 -1.59935e-16 1.70611)
(3.2476e-17 -1.59103e-16 1.6708)
(1.30368e-17 -1.57162e-16 1.6342)
(-2.03216e-17 -1.44296e-16 1.59614)
(-5.01771e-17 -1.28868e-16 1.55635)
(-4.41382e-17 -1.23044e-16 1.51453)
(-4.69559e-17 -1.18318e-16 1.47023)
(-7.53116e-17 -1.12398e-16 1.42293)
(-7.77133e-17 -1.12806e-16 1.3719)
(-6.51082e-17 -1.16677e-16 1.31624)
(-5.82528e-17 -1.20554e-16 1.25476)
(-5.17488e-17 -1.22266e-16 1.18592)
(-4.78223e-17 -1.22959e-16 1.10777)
(-3.65934e-17 -1.23904e-16 1.01802)
(-3.0536e-17 -1.22912e-16 0.914687)
(-2.83491e-17 -1.18315e-16 0.798213)
(-2.47331e-17 -1.0999e-16 0.675032)
(-1.9479e-17 -9.87349e-17 0.552815)
(-1.3812e-17 -8.47481e-17 0.435064)
(-1.05927e-17 -6.83517e-17 0.32393)
(-7.85438e-18 -5.04288e-17 0.220838)
(-4.64127e-18 -3.17032e-17 0.12645)
(-1.62388e-18 -1.05506e-17 0.0407502)
(-7.60019e-17 -1.81231e-16 1.92297)
(5.09594e-18 -1.59912e-16 1.89593)
(8.36233e-17 -1.35089e-16 1.86742)
(6.25692e-17 -1.13141e-16 1.83763)
(4.77461e-17 -1.03807e-16 1.80669)
(3.06972e-17 -9.94792e-17 1.77467)
(2.16572e-17 -8.10214e-17 1.74161)
(6.56689e-17 -6.48471e-17 1.70748)
(7.22591e-17 -6.2432e-17 1.67219)
(5.42998e-17 -5.37164e-17 1.63562)
(4.17991e-17 -4.88069e-17 1.59759)
(2.41151e-17 -3.91953e-17 1.55784)
(6.97018e-18 -3.36792e-17 1.51606)
(3.6582e-18 -3.08147e-17 1.47183)
(1.27684e-17 -2.6326e-17 1.42459)
(2.81944e-17 -1.97935e-17 1.37366)
(3.88664e-17 -1.41384e-17 1.31812)
(4.11693e-17 -7.26871e-18 1.25678)
(3.49517e-17 -2.49198e-19 1.18811)
(1.66734e-17 6.91661e-18 1.11017)
(1.02605e-18 1.18527e-17 1.02065)
(-5.33284e-18 1.42501e-17 0.91753)
(-7.29632e-18 1.5314e-17 0.801139)
(-6.46359e-18 1.50297e-17 0.677779)
(-4.89432e-18 1.36541e-17 0.555192)
(-2.76827e-18 1.13541e-17 0.43701)
(-1.29979e-18 8.65388e-18 0.325417)
(-1.98007e-19 5.93494e-18 0.221866)
(8.20125e-20 3.56857e-18 0.127043)
(-2.12238e-19 5.11445e-19 0.0409419)
(3.06592e-17 -1.73338e-16 1.92297)
(2.68621e-17 -1.14267e-16 1.89593)
(4.24111e-17 -1.1521e-16 1.86742)
(5.17467e-17 -1.35909e-16 1.83763)
(5.58921e-17 -1.21813e-16 1.80669)
(7.25974e-17 -1.17425e-16 1.77467)
(7.54762e-17 -9.38509e-17 1.74161)
(5.39759e-17 -8.36025e-17 1.70748)
(4.21045e-17 -8.73507e-17 1.67219)
(3.07486e-17 -8.28838e-17 1.63562)
(1.12766e-17 -7.55602e-17 1.59759)
(-1.40054e-17 -6.91659e-17 1.55784)
(-3.08113e-17 -6.22296e-17 1.51606)
(-2.7363e-17 -5.54947e-17 1.47183)
(-2.81863e-17 -4.6641e-17 1.42459)
(-2.0992e-17 -4.12453e-17 1.37366)
(-6.8797e-18 -3.71842e-17 1.31812)
(8.86341e-18 -3.40094e-17 1.25678)
(1.6217e-17 -3.21972e-17 1.18811)
(3.76482e-18 -3.17075e-17 1.11017)
(-1.61038e-17 -3.15138e-17 1.02065)
(-2.34657e-17 -3.0404e-17 0.91753)
(-1.93231e-17 -2.8566e-17 0.801139)
(-1.44209e-17 -2.60699e-17 0.677779)
(-1.01213e-17 -2.30842e-17 0.555192)
(-6.18483e-18 -1.95124e-17 0.43701)
(-3.31219e-18 -1.52644e-17 0.325417)
(-1.31404e-18 -1.04287e-17 0.221866)
(-3.04419e-19 -5.24358e-18 0.127043)
(-2.28193e-19 -2.89819e-18 0.0409419)
(1.22572e-16 -1.60849e-16 1.92184)
(7.45086e-17 -1.17664e-16 1.89474)
(4.82326e-17 -9.22556e-17 1.86619)
(6.10513e-17 -1.09128e-16 1.83637)
(8.15577e-17 -1.13703e-16 1.8054)
(8.54586e-17 -1.01864e-16 1.77336)
(7.37423e-17 -9.59874e-17 1.74027)
(3.29512e-17 -9.2364e-17 1.70611)
(2.35951e-17 -9.28256e-17 1.6708)
(4.35386e-17 -9.74628e-17 1.6342)
(4.47199e-17 -1.01432e-16 1.59614)
(3.35191e-17 -1.06683e-16 1.55635)
(2.39333e-17 -1.09754e-16 1.51453)
(4.18855e-17 -1.10219e-16 1.47023)
(4.90488e-17 -1.1133e-16 1.42293)
(3.77634e-17 -1.10786e-16 1.3719)
(3.65952e-17 -1.11622e-16 1.31624)
(3.18441e-17 -1.14235e-16 1.25476)
(2.16382e-17 -1.18412e-16 1.18592)
(7.27363e-18 -1.22545e-16 1.10777)
(-3.9305e-19 -1.24474e-16 1.01802)
(-6.65343e-19 -1.23092e-16 0.914687)
(4.0575e-18 -1.18088e-16 0.798213)
(9.28408e-18 -1.09132e-16 0.675032)
(8.47841e-18 -9.77373e-17 0.552815)
(6.95776e-18 -8.3698e-17 0.435064)
(5.64393e-18 -6.74302e-17 0.32393)
(4.80967e-18 -4.92937e-17 0.220838)
(3.26773e-18 -2.97999e-17 0.12645)
(1.13732e-18 -1.15679e-17 0.0407502)
(1.504e-16 -6.44377e-17 1.91958)
(1.10179e-16 -5.55149e-17 1.89237)
(4.78134e-17 -8.65617e-17 1.86374)
(9.13549e-18 -7.31872e-17 1.83384)
(5.71917e-17 -5.02849e-17 1.80281)
(9.3614e-17 -5.37791e-17 1.77072)
(8.50018e-17 -6.55534e-17 1.73758)
(4.1037e-17 -8.45482e-17 1.70337)
(-1.45776e-17 -1.0312e-16 1.668)
(-3.5698e-17 -1.20628e-16 1.63135)
(-4.14852e-17 -1.26412e-16 1.59322)
(-4.87812e-17 -1.29829e-16 1.55335)
(-5.00347e-17 -1.31433e-16 1.51143)
(-3.72e-17 -1.28334e-16 1.46702)
(-2.08871e-19 -1.22021e-16 1.41956)
(2.01469e-17 -1.18077e-16 1.36836)
(1.63978e-17 -1.1835e-16 1.31247)
(2.02551e-17 -1.16575e-16 1.25071)
(2.5521e-17 -1.14799e-16 1.18152)
(2.31619e-17 -1.14502e-16 1.10296)
(1.10427e-17 -1.1488e-16 1.01274)
(6.47149e-18 -1.11741e-16 0.908982)
(1.39926e-17 -1.03296e-16 0.792357)
(1.75824e-17 -9.35583e-17 0.669545)
(1.56158e-17 -8.29919e-17 0.548071)
(1.3105e-17 -7.0845e-17 0.431184)
(9.58217e-18 -5.7456e-17 0.320968)
(6.67054e-18 -4.25082e-17 0.218789)
(4.48746e-18 -2.55839e-17 0.125269)
(1.72251e-18 -1.06759e-17 0.0403686)
(1.15575e-16 -7.97456e-17 1.91615)
(4.78964e-17 -1.31501e-16 1.8888)
(4.98964e-17 -1.60833e-16 1.86004)
(1.07899e-16 -1.0872e-16 1.83004)
(7.27143e-17 -8.43987e-17 1.79891)
(2.89744e-17 -9.55207e-17 1.76673)
(1.23484e-17 -9.27277e-17 1.73351)
(-1.56315e-17 -9.76312e-17 1.69922)
(-2.84884e-17 -1.05931e-16 1.66377)
(1.12621e-17 -1.03614e-16 1.62702)
(5.7408e-17 -9.54324e-17 1.58878)
(6.09844e-17 -9.57278e-17 1.5488)
(6.44451e-17 -9.3002e-17 1.50672)
(8.39674e-17 -8.45208e-17 1.46213)
(8.96123e-17 -8.00078e-17 1.41445)
(8.5822e-17 -8.08633e-17 1.36297)
(9.2185e-17 -7.8178e-17 1.30674)
(8.60016e-17 -8.07732e-17 1.24456)
(6.46995e-17 -8.75784e-17 1.17485)
(4.87463e-17 -9.20726e-17 1.09567)
(4.52697e-17 -9.08538e-17 1.00475)
(4.98924e-17 -8.53095e-17 0.900384)
(4.69334e-17 -7.97471e-17 0.783571)
(3.5692e-17 -7.4717e-17 0.661346)
(2.67301e-17 -6.70554e-17 0.540996)
(1.92665e-17 -5.73191e-17 0.425406)
(1.43486e-17 -4.56244e-17 0.31656)
(1.0132e-17 -3.28218e-17 0.215743)
(5.94631e-18 -1.95406e-17 0.123514)
(1.84344e-18 -7.33057e-18 0.0398012)
(6.94658e-17 -5.97909e-17 1.91156)