/*--------------------------------*- C++ -*----------------------------------*\
| =========                 |                                                 |
| \\      /  F ield         | OpenFOAM: The Open Source CFD Toolbox           |
|  \\    /   O peration     | Version:  2306                                  |
|   \\  /    A nd           | Website:  www.openfoam.com                      |
|    \\/     M anipulation  |                                                 |
\*---------------------------------------------------------------------------*/
FoamFile
{
    version     2.0;
    format      ascii;
    arch        "LSB;label=32;scalar=64";
    class       volScalarField;
    location    "4320";
    object      zeta;
}
// * * * * * * * * * * * * * * * * * * * * * * * * * * * * * * * * * * * * * //

dimensions      [0 0 0 0 0 0 0];

internalField   nonuniform List<scalar> 
2800
(
0.451747
0.46433
0.475807
0.486104
0.495134
0.50281
0.509056
0.513803
0.516999
0.518607
0.518607
0.516999
0.513803
0.509056
0.50281
0.495134
0.486104
0.475807
0.46433
0.451747
0.464403
0.480235
0.494629
0.507566
0.518975
0.528736
0.536723
0.542822
0.546941
0.549017
0.549017
0.546941
0.542822
0.536723
0.528736
0.518975
0.507566
0.494629
0.480235
0.464403
0.475894
0.494669
0.511917
0.527503
0.541297
0.553141
0.562864
0.57031
0.575348
0.57789
0.57789
0.575348
0.57031
0.562864
0.553141
0.541297
0.527503
0.511917
0.494669
0.475894
0.48619
0.507623
0.527529
0.545649
0.561758
0.57563
0.587043
0.595797
0.601728
0.604722
0.604722
0.601728
0.595797
0.587043
0.57563
0.561758
0.545649
0.527529
0.507623
0.48619
0.495212
0.519037
0.541337
0.561775
0.58003
0.595797
0.608792
0.61877
0.625534
0.628951
0.628951
0.625534
0.61877
0.608792
0.595797
0.58003
0.561775
0.541337
0.519037
0.495212
0.502879
0.528796
0.553186
0.575658
0.595809
0.613259
0.627664
0.638732
0.646238
0.650029
0.650029
0.646238
0.638732
0.627664
0.613259
0.595809
0.575658
0.553186
0.528796
0.502879
0.509114
0.536779
0.562911
0.587077
0.608813
0.627673
0.643259
0.655241
0.663369
0.667475
0.667475
0.663369
0.655241
0.643259
0.627673
0.608813
0.587077
0.562911
0.536779
0.509114
0.513853
0.542872
0.570355
0.595833
0.618796
0.638747
0.655248
0.667938
0.676546
0.680894
0.680894
0.676546
0.667938
0.655248
0.638747
0.618796
0.595833
0.570355
0.542872
0.513853
0.517042
0.546987
0.575392
0.601765
0.625563
0.646257
0.66338
0.676551
0.685485
0.689998
0.689998
0.685485
0.676551
0.66338
0.646257
0.625563
0.601765
0.575392
0.546987
0.517042
0.518646
0.549061
0.577933
0.60476
0.62898
0.650051
0.667488
0.680901
0.69
0.694596
0.694596
0.69
0.680901
0.667488
0.650051
0.62898
0.604759
0.577933
0.549061
0.518646
0.518646
0.549061
0.577933
0.60476
0.62898
0.650051
0.667488
0.680901
0.69
0.694596
0.694596
0.69
0.680901
0.667488
0.650051
0.62898
0.604759
0.577933
0.549061
0.518646
0.517042
0.546987
0.575392
0.601765
0.625563
0.646257
0.66338
0.676551
0.685485
0.689998
0.689998
0.685485
0.676551
0.66338
0.646257
0.625563
0.601765
0.575392
0.546987
0.517042
0.513853
0.542872
0.570355
0.595833
0.618796
0.638747
0.655248
0.667938
0.676546
0.680894
0.680894
0.676546
0.667938
0.655248
0.638747
0.618796
0.595833
0.570355
0.542872
0.513853
0.509114
0.536779
0.562911
0.587077
0.608813
0.627673
0.643259
0.655241
0.663369
0.667475
0.667475
0.663369
0.655241
0.643259
0.627673
0.608813
0.587077
0.562911
0.536779
0.509114
0.502879
0.528796
0.553186
0.575658
0.595809
0.613259
0.627664
0.638732
0.646238
0.650029
0.650029
0.646238
0.638732
0.627664
0.613259
0.595809
0.575658
0.553186
0.528796
0.502879
0.495212
0.519037
0.541337
0.561775
0.58003
0.595797
0.608792
0.61877
0.625534
0.628951
0.628951
0.625534
0.61877
0.608792
0.595797
0.58003
0.561775
0.541337
0.519037
0.495212
0.48619
0.507623
0.527529
0.545649
0.561758
0.57563
0.587043
0.595797
0.601728
0.604722
0.604722
0.601728
0.595797
0.587043
0.57563
0.561758
0.545649
0.527529
0.507623
0.48619
0.475894
0.494669
0.511917
0.527503
0.541297
0.553141
0.562864
0.57031
0.575348
0.57789
0.57789
0.575348
0.57031
0.562864
0.553141
0.541297
0.527503
0.511917
0.494669
0.475894
0.464403
0.480235
0.494629
0.507566
0.518975
0.528736
0.536723
0.542822
0.546941
0.549017
0.549017
0.546941
0.542822
0.536723
0.528736
0.518975
0.507566
0.494629
0.480235
0.464403
0.451747
0.46433
0.475807
0.486104
0.495134
0.50281
0.509056
0.513803
0.516999
0.518607
0.518607
0.516999
0.513803
0.509056
0.50281
0.495134
0.486104
0.475807
0.46433
0.451747
0.433303
0.407938
0.383592
0.360143
0.33744
0.315343
0.293739
0.272551
0.251731
0.231263
0.211152
0.191426
0.172135
0.153346
0.135154
0.117682
0.101087
0.0855689
0.071358
0.0586767
0.0476413
0.038124
0.0298088
0.0226465
0.0164121
0.0110422
0.00661532
0.00326293
0.00108052
8.07279e-05
0.444278
0.418174
0.393302
0.369434
0.346383
0.323987
0.302117
0.280681
0.259618
0.238903
0.218533
0.198528
0.178932
0.159807
0.141239
0.123344
0.106272
0.0902151
0.0754049
0.0620835
0.0504208
0.0403677
0.0316297
0.0240758
0.0175123
0.0118409
0.0071322
0.00353599
0.00117622
8.82507e-05
0.453816
0.427193
0.401855
0.377602
0.354234
0.331569
0.309465
0.287813
0.266545
0.245621
0.225033
0.204794
0.184942
0.165533
0.146648
0.128394
0.110917
0.0944001
0.0790745
0.0651945
0.0529708
0.042424
0.0332935
0.0253743
0.0185117
0.01257
0.00760796
0.00378944
0.00126568
9.5324e-05
0.462198
0.435091
0.409334
0.384732
0.361076
0.338174
0.315865
0.29403
0.272588
0.25149
0.230721
0.210287
0.19022
0.170572
0.151417
0.132859
0.115034
0.0981224
0.0823526
0.0679875
0.0552682
0.0442744
0.0347861
0.0265323
0.0194027
0.0132232
0.00803741
0.00402012
0.00134768
0.000101848
0.469453
0.441897
0.41576
0.390846
0.366936
0.343824
0.32134
0.29935
0.277763
0.256523
0.235605
0.215011
0.194767
0.174919
0.155538
0.136723
0.118605
0.10136
0.0852135
0.0704342
0.0572865
0.0458989
0.0360924
0.0275403
0.0201774
0.0137933
0.00841486
0.00422438
0.00142077
0.000107694
0.475564
0.447612
0.421141
0.395952
0.37182
0.348527
0.325893
0.303773
0.282067
0.26071
0.239672
0.21895
0.198563
0.178556
0.158994
0.139972
0.121617
0.104099
0.0876437
0.0725215
0.0590144
0.0472897
0.0372081
0.0283965
0.0208344
0.014278
0.00873744
0.00440002
0.00148396
0.000112771
0.480503
0.452219
0.425467
0.400047
0.375728
0.352283
0.329522
0.307294
0.285488
0.264036
0.2429
0.222074
0.201575
0.181442
0.161741
0.14256
0.124025
0.106302
0.0896111
0.0742244
0.0604326
0.048431
0.0381183
0.029117
0.021388
0.0146867
0.00900995
0.00454877
0.00153761
0.000117093
0.484238
0.455698
0.428727
0.403126
0.378659
0.355095
0.332234
0.30992
0.288037
0.266512
0.245303
0.2244
0.203819
0.183597
0.163795
0.144503
0.125839
0.107969
0.0911089
0.0755289
0.0615251
0.0493119
0.0388193
0.0296777
0.0218181
0.0150041
0.00922187
0.0046647
0.00157951
0.000120476
0.486744
0.458029
0.430908
0.405182
0.380613
0.356966
0.334037
0.311664
0.289729
0.268155
0.246898
0.225946
0.205312
0.185033
0.165168
0.145803
0.127057
0.109091
0.0921197
0.0764119
0.0622667
0.0499109
0.0392956
0.0300581
0.0221093
0.015219
0.00936553
0.00474347
0.00160804
0.000122783
0.488002
0.459198
0.432
0.406212
0.38159
0.3579
0.334936
0.312533
0.290573
0.268974
0.247694
0.226718
0.206059
0.185752
0.165855
0.146455
0.127669
0.109655
0.0926285
0.0768569
0.062641
0.0502135
0.039536
0.03025
0.022256
0.0153272
0.00943797
0.00478325
0.00162247
0.000123951
0.488002
0.459198
0.432
0.406212
0.38159
0.3579
0.334936
0.312533
0.290573
0.268974
0.247694
0.226718
0.206059
0.185752
0.165855
0.146455
0.127669
0.109655
0.0926285
0.0768569
0.062641
0.0502135
0.039536
0.03025
0.022256
0.0153272
0.00943797
0.00478325
0.00162247
0.000123951
0.486744
0.458029
0.430908
0.405182
0.380613
0.356966
0.334037
0.311664
0.289729
0.268155
0.246898
0.225946
0.205312
0.185033
0.165168
0.145803
0.127057
0.109091
0.0921197
0.0764119
0.0622667
0.0499109
0.0392956
0.0300581
0.0221093
0.015219
0.00936553
0.00474347
0.00160804
0.000122783
0.484238
0.455698
0.428727
0.403126
0.378659
0.355095
0.332234
0.30992
0.288037
0.266512
0.245303
0.2244
0.203819
0.183597
0.163795
0.144503
0.125839
0.107969
0.0911089
0.0755289
0.0615251
0.0493119
0.0388193
0.0296777
0.0218181
0.0150041
0.00922187
0.0046647
0.00157951
0.000120476
0.480503
0.452219
0.425467
0.400047
0.375728
0.352283
0.329522
0.307294
0.285488
0.264036
0.2429
0.222074
0.201575
0.181442
0.161741
0.14256
0.124025
0.106302
0.0896111
0.0742244
0.0604326
0.048431
0.0381183
0.029117
0.021388
0.0146867
0.00900995
0.00454877
0.00153761
0.000117093
0.475564
0.447612
0.421141
0.395952
0.37182
0.348527
0.325893
0.303773
0.282067
0.26071
0.239672
0.21895
0.198563
0.178556
0.158994
0.139972
0.121617
0.104099
0.0876437
0.0725215
0.0590144
0.0472897
0.0372081
0.0283965
0.0208344
0.014278
0.00873744
0.00440002
0.00148396
0.000112771
0.469453
0.441897
0.41576
0.390846
0.366936
0.343824
0.32134
0.29935
0.277763
0.256523
0.235605
0.215011
0.194767
0.174919
0.155538
0.136723
0.118605
0.10136
0.0852135
0.0704342
0.0572865
0.0458989
0.0360924
0.0275403
0.0201774
0.0137933
0.00841486
0.00422438
0.00142077
0.000107694
0.462198
0.435091
0.409334
0.384732
0.361076
0.338174
0.315865
0.29403
0.272588
0.25149
0.230721
0.210287
0.19022
0.170572
0.151417
0.132859
0.115034
0.0981224
0.0823526
0.0679875
0.0552682
0.0442744
0.0347861
0.0265323
0.0194027
0.0132232
0.00803741
0.00402012
0.00134768
0.000101848
0.453816
0.427193
0.401855
0.377602
0.354234
0.331569
0.309465
0.287813
0.266545
0.245621
0.225033
0.204794
0.184942
0.165533
0.146648
0.128394
0.110917
0.0944001
0.0790745
0.0651945
0.0529708
0.042424
0.0332935
0.0253743
0.0185117
0.01257
0.00760796
0.00378944
0.00126568
9.5324e-05
0.444278
0.418174
0.393302
0.369434
0.346383
0.323987
0.302117
0.280681
0.259618
0.238903
0.218533
0.198528
0.178932
0.159807
0.141239
0.123344
0.106272
0.0902151
0.0754049
0.0620835
0.0504208
0.0403677
0.0316297
0.0240758
0.0175123
0.0118409
0.0071322
0.00353599
0.00117622
8.82507e-05
0.433303
0.407938
0.383592
0.360143
0.33744
0.315343
0.293739
0.272551
0.251731
0.231263
0.211152
0.191426
0.172135
0.153346
0.135154
0.117682
0.101087
0.0855689
0.071358
0.0586767
0.0476413
0.038124
0.0298088
0.0226465
0.0164121
0.0110422
0.00661532
0.00326293
0.00108052
8.07279e-05
0.433136
0.407784
0.383441
0.359994
0.337298
0.31521
0.293618
0.272444
0.251639
0.231186
0.211089
0.191378
0.1721
0.153323
0.135141
0.117675
0.101087
0.0855725
0.0713638
0.0586833
0.0476477
0.0381297
0.029814
0.0226509
0.0164159
0.0110452
0.00661745
0.00326415
0.00108098
8.07651e-05
0.444203
0.418092
0.39322
0.369353
0.346304
0.32391
0.302044
0.28061
0.259552
0.238839
0.218472
0.19847
0.178876
0.159752
0.141186
0.123293
0.106224
0.0901706
0.0753651
0.0620492
0.0503923
0.0403446
0.0316109
0.024061
0.0175009
0.0118325
0.00712673
0.00353306
0.00117518
8.81641e-05
0.453749
0.427132
0.401798
0.377546
0.354176
0.33151
0.309403
0.287749
0.266478
0.245552
0.224962
0.204723
0.18487
0.165462
0.146578
0.128327
0.110853
0.094341
0.0790217
0.0651491
0.0529333
0.0423937
0.033269
0.0253552
0.018497
0.0125592
0.00760084
0.0037856
0.0012643
9.52112e-05
0.462135
0.435039
0.409288
0.384688
0.36103
0.338125
0.315812
0.293973
0.272526
0.251425
0.230653
0.210217
0.190149
0.1705
0.151347
0.132791
0.114969
0.0980627
0.0822991
0.0679413
0.0552299
0.0442435
0.0347612
0.026513
0.0193878
0.0132122
0.00803014
0.00401617
0.00134626
0.000101731
0.469394
0.441851
0.415722
0.39081
0.366899
0.343785
0.321296
0.299302
0.277711
0.256468
0.235547
0.21495
0.194704
0.174856
0.155476
0.136663
0.118548
0.101306
0.085165
0.0703921
0.0572514
0.0458706
0.0360696
0.0275228
0.020164
0.0137834
0.00840824
0.00422077
0.00141946
0.000107586
0.475511
0.447571
0.421108
0.395923
0.371791
0.348497
0.325859
0.303736
0.282026
0.260667
0.239626
0.218902
0.198514
0.178505
0.158944
0.139923
0.121569
0.104055
0.0876032
0.072486
0.0589845
0.0472656
0.0371887
0.0283817
0.0208231
0.0142696
0.00873186
0.00439695
0.00148284
0.000112679
0.480454
0.452183
0.425439
0.400025
0.375706
0.352261
0.329499
0.307267
0.285459
0.264005
0.242867
0.222039
0.201539
0.181406
0.161704
0.142524
0.12399
0.106269
0.0895808
0.0741976
0.06041
0.0484127
0.0381037
0.0291053
0.0213791
0.0146801
0.00900554
0.00454635
0.00153672
0.00011702
0.484194
0.455666
0.428704
0.403109
0.378644
0.35508
0.332218
0.309903
0.288018
0.266491
0.245281
0.224377
0.203795
0.183572
0.16377
0.144478
0.125815
0.107947
0.091088
0.0755103
0.0615093
0.0492991
0.0388091
0.0296696
0.0218119
0.0149995
0.0092188
0.00466301
0.00157889
0.000120423
0.486703
0.458
0.430888
0.405169
0.380603
0.356956
0.334027
0.311653
0.289717
0.268141
0.246884
0.225931
0.205297
0.185017
0.165152
0.145787
0.127041
0.109077
0.0921061
0.0763997
0.0622563
0.0499025
0.0392889
0.0300528
0.0221053
0.015216
0.0093635
0.00474235
0.00160763
0.000122747
0.487962
0.459171
0.431983
0.4062
0.381582
0.357893
0.334929
0.312526
0.290564
0.268965
0.247684
0.226707
0.206048
0.18574
0.165844
0.146444
0.127657
0.109645
0.0926187
0.0768481
0.0626335
0.0502074
0.0395312
0.0302462
0.0222531
0.0153251
0.0094365
0.00478243
0.00162217
0.000123924
0.487962
0.459171
0.431983
0.4062
0.381582
0.357893
0.334929
0.312526
0.290564
0.268965
0.247684
0.226707
0.206048
0.18574
0.165844
0.146444
0.127657
0.109645
0.0926187
0.0768481
0.0626335
0.0502074
0.0395312
0.0302462
0.0222531
0.0153251
0.0094365
0.00478243
0.00162217
0.000123924
0.486703
0.458
0.430888
0.405169
0.380603
0.356956
0.334027
0.311653
0.289717
0.268141
0.246884
0.225931
0.205297
0.185017
0.165152
0.145787
0.127041
0.109077
0.0921061
0.0763997
0.0622563
0.0499025
0.0392889
0.0300528
0.0221053
0.015216
0.0093635
0.00474235
0.00160763
0.000122747
0.484194
0.455666
0.428704
0.403109
0.378644
0.35508
0.332218
0.309903
0.288018
0.266491
0.245281
0.224377
0.203795
0.183572
0.16377
0.144478
0.125815
0.107947
0.091088
0.0755103
0.0615093
0.0492991
0.0388091
0.0296696
0.0218119
0.0149995
0.0092188
0.00466301
0.00157889
0.000120423
0.480454
0.452183
0.425439
0.400025
0.375706
0.352261
0.329499
0.307267
0.285459
0.264005
0.242867
0.222039
0.201539
0.181406
0.161704
0.142524
0.12399
0.106269
0.0895808
0.0741976
0.06041
0.0484127
0.0381037
0.0291053
0.0213791
0.0146801
0.00900554
0.00454635
0.00153672
0.00011702
0.475511
0.447571
0.421108
0.395923
0.371791
0.348497
0.325859
0.303736
0.282026
0.260667
0.239626
0.218902
0.198514
0.178505
0.158944
0.139923
0.121569
0.104055
0.0876032
0.072486
0.0589845
0.0472656
0.0371887
0.0283817
0.0208231
0.0142696
0.00873186
0.00439695
0.00148284
0.000112679
0.469394
0.441851
0.415722
0.39081
0.366899
0.343785
0.321296
0.299302
0.277711
0.256468
0.235547
0.21495
0.194704
0.174856
0.155476
0.136663
0.118548
0.101306
0.085165
0.0703921
0.0572514
0.0458706
0.0360696
0.0275228
0.020164
0.0137834
0.00840824
0.00422077
0.00141946
0.000107586
0.462135
0.435039
0.409288
0.384688
0.36103
0.338125
0.315812
0.293973
0.272526
0.251425
0.230653
0.210217
0.190149
0.1705
0.151347
0.132791
0.114969
0.0980627
0.0822991
0.0679413
0.0552299
0.0442435
0.0347612
0.026513
0.0193878
0.0132122
0.00803014
0.00401617
0.00134626
0.000101731
0.453749
0.427132
0.401798
0.377546
0.354176
0.33151
0.309403
0.287749
0.266478
0.245552
0.224962
0.204723
0.18487
0.165462
0.146578
0.128327
0.110853
0.094341
0.0790217
0.0651491
0.0529333
0.0423937
0.033269
0.0253552
0.018497
0.0125592
0.00760084
0.0037856
0.0012643
9.52112e-05
0.444203
0.418092
0.39322
0.369353
0.346304
0.32391
0.302044
0.28061
0.259552
0.238839
0.218472
0.19847
0.178876
0.159752
0.141186
0.123293
0.106224
0.0901706
0.0753651
0.0620492
0.0503923
0.0403446
0.0316109
0.024061
0.0175009
0.0118325
0.00712673
0.00353306
0.00117518
8.81641e-05
0.433136
0.407783
0.383441
0.359994
0.337298
0.31521
0.293618
0.272444
0.251639
0.231186
0.211089
0.191378
0.1721
0.153323
0.135141
0.117675
0.101087
0.0855725
0.0713638
0.0586833
0.0476477
0.0381297
0.029814
0.0226509
0.0164159
0.0110452
0.00661745
0.00326415
0.00108098
8.07651e-05
0.433303
0.407938
0.383592
0.360143
0.33744
0.315343
0.293739
0.272551
0.251731
0.231263
0.211152
0.191426
0.172135
0.153346
0.135154
0.117682
0.101087
0.0855689
0.071358
0.0586767
0.0476413
0.038124
0.0298088
0.0226465
0.0164121
0.0110422
0.00661532
0.00326293
0.00108052
8.07279e-05
0.444278
0.418174
0.393302
0.369434
0.346383
0.323987
0.302117
0.280681
0.259618
0.238903
0.218533
0.198528
0.178932
0.159807
0.141239
0.123344
0.106272
0.0902151
0.0754049
0.0620835
0.0504208
0.0403677
0.0316297
0.0240758
0.0175123
0.0118409
0.0071322
0.00353599
0.00117622
8.82507e-05
0.453816
0.427193
0.401855
0.377602
0.354234
0.331569
0.309465
0.287813
0.266545
0.245621
0.225033
0.204794
0.184942
0.165533
0.146648
0.128394
0.110917
0.0944001
0.0790745
0.0651945
0.0529708
0.042424
0.0332935
0.0253743
0.0185117
0.01257
0.00760796
0.00378944
0.00126568
9.5324e-05
0.462198
0.435091
0.409334
0.384732
0.361076
0.338174
0.315865
0.29403
0.272588
0.25149
0.230721
0.210287
0.19022
0.170572
0.151417
0.132859
0.115034
0.0981224
0.0823526
0.0679875
0.0552682
0.0442744
0.0347861
0.0265323
0.0194027
0.0132232
0.00803741
0.00402012
0.00134768
0.000101848
0.469453
0.441897
0.41576
0.390846
0.366936
0.343824
0.32134
0.29935
0.277763
0.256523
0.235605
0.215011
0.194767
0.174919
0.155538
0.136723
0.118605
0.10136
0.0852135
0.0704342
0.0572865
0.0458989
0.0360924
0.0275403
0.0201774
0.0137933
0.00841486
0.00422438
0.00142077
0.000107694
0.475564
0.447612
0.421141
0.395952
0.37182
0.348527
0.325893
0.303773
0.282067
0.26071
0.239672
0.21895
0.198563
0.178556
0.158994
0.139972
0.121617
0.104099
0.0876437
0.0725215
0.0590144
0.0472897
0.0372081
0.0283965
0.0208344
0.014278
0.00873744
0.00440002
0.00148396
0.000112771
0.480503
0.452219
0.425467
0.400047
0.375728
0.352283
0.329522
0.307294
0.285488
0.264036
0.2429
0.222074
0.201575
0.181442
0.161741
0.14256
0.124025
0.106302
0.0896111
0.0742244
0.0604326
0.048431
0.0381183
0.029117
0.021388
0.0146867
0.00900995
0.00454877
0.00153761
0.000117093
0.484238
0.455698
0.428727
0.403126
0.378659
0.355095
0.332234
0.30992
0.288037
0.266512
0.245303
0.2244
0.203819
0.183597
0.163795
0.144503
0.125839
0.107969
0.0911089
0.0755289
0.0615251
0.0493119
0.0388193
0.0296777
0.0218181
0.0150041
0.00922187
0.0046647
0.00157951
0.000120476
0.486744
0.458029
0.430908
0.405182
0.380613
0.356966
0.334037
0.311664
0.289729
0.268155
0.246898
0.225946
0.205312
0.185033
0.165168
0.145803
0.127057
0.109091
0.0921197
0.0764119
0.0622667
0.0499109
0.0392956
0.0300581
0.0221093
0.015219
0.00936553
0.00474347
0.00160804
0.000122783
0.488002
0.459198
0.432
0.406212
0.38159
0.3579
0.334936
0.312533
0.290573
0.268974
0.247694
0.226718
0.206059
0.185752
0.165855
0.146455
0.127669
0.109655
0.0926285
0.0768569
0.062641
0.0502135
0.039536
0.03025
0.022256
0.0153272
0.00943797
0.00478325
0.00162247
0.000123951
0.488002
0.459198
0.432
0.406212
0.38159
0.3579
0.334936
0.312533
0.290573
0.268974
0.247694
0.226718
0.206059
0.185752
0.165855
0.146455
0.127669
0.109655
0.0926285
0.0768569
0.062641
0.0502135
0.039536
0.03025
0.022256
0.0153272
0.00943797
0.00478325
0.00162247
0.000123951
0.486744
0.458029
0.430908
0.405182
0.380613
0.356966
0.334037
0.311664
0.289729
0.268155
0.246898
0.225946
0.205312
0.185033
0.165168
0.145803
0.127057
0.109091
0.0921197
0.0764119
0.0622667
0.0499109
0.0392956
0.0300581
0.0221093
0.015219
0.00936553
0.00474347
0.00160804
0.000122783
0.484238
0.455698
0.428727
0.403126
0.378659
0.355095
0.332234
0.30992
0.288037
0.266512
0.245303
0.2244
0.203819
0.183597
0.163795
0.144503
0.125839
0.107969
0.0911089
0.0755289
0.0615251
0.0493119
0.0388193
0.0296777
0.0218181
0.0150041
0.00922187
0.0046647
0.00157951
0.000120476
0.480503
0.452219
0.425467
0.400047
0.375728
0.352283
0.329522
0.307294
0.285488
0.264036
0.2429
0.222074
0.201575
0.181442
0.161741
0.14256
0.124025
0.106302
0.0896111
0.0742244
0.0604326
0.048431
0.0381183
0.029117
0.021388
0.0146867
0.00900996
0.00454877
0.00153761
0.000117093
0.475564
0.447612
0.421141
0.395952
0.37182
0.348527
0.325893
0.303773
0.282067
0.26071
0.239672
0.21895
0.198563
0.178556
0.158994
0.139972
0.121617
0.104099
0.0876437
0.0725215
0.0590144
0.0472897
0.0372081
0.0283965
0.0208344
0.014278
0.00873744
0.00440002
0.00148396
0.000112771
0.469453
0.441897
0.41576
0.390846
0.366936
0.343824
0.32134
0.29935
0.277763
0.256523
0.235605
0.215011
0.194767
0.174919
0.155538
0.136723
0.118605
0.10136
0.0852135
0.0704342
0.0572865
0.0458989
0.0360924
0.0275403
0.0201774
0.0137933
0.00841486
0.00422438
0.00142077
0.000107694
0.462198
0.435091
0.409334
0.384732
0.361076
0.338174
0.315865
0.29403
0.272588
0.25149
0.230721
0.210287
0.19022
0.170572
0.151417
0.132859
0.115034
0.0981224
0.0823526
0.0679875
0.0552682
0.0442744
0.0347861
0.0265323
0.0194027
0.0132232
0.00803741
0.00402012
0.00134768
0.000101848
0.453816
0.427193
0.401855
0.377602
0.354234
0.331569
0.309465
0.287813
0.266545
0.245621
0.225033
0.204794
0.184942
0.165533
0.146648
0.128394
0.110917
0.0944001
0.0790745
0.0651946
0.0529708
0.042424
0.0332935
0.0253743
0.0185117
0.01257
0.00760796
0.00378944
0.00126568
9.5324e-05
0.444278
0.418174
0.393302
0.369434
0.346383
0.323987
0.302117
0.280681
0.259618
0.238903
0.218533
0.198528
0.178932
0.159807
0.141239
0.123344
0.106272
0.0902151
0.0754049
0.0620835
0.0504208
0.0403677
0.0316297
0.0240758
0.0175123
0.0118409
0.0071322
0.00353599
0.00117622
8.82507e-05
0.433303
0.407938
0.383592
0.360143
0.33744
0.315343
0.293739
0.272551
0.251731
0.231263
0.211152
0.191426
0.172135
0.153346
0.135154
0.117682
0.101087
0.0855689
0.071358
0.0586767
0.0476413
0.038124
0.0298088
0.0226465
0.0164121
0.0110422
0.00661532
0.00326293
0.00108052
8.07279e-05
0.433136
0.407784
0.383441
0.359994
0.337298
0.31521
0.293618
0.272444
0.251639
0.231186
0.211089
0.191378
0.1721
0.153323
0.135141
0.117675
0.101087
0.0855725
0.0713638
0.0586833
0.0476477
0.0381297
0.029814
0.0226509
0.0164159
0.0110452
0.00661745
0.00326415
0.00108098
8.07651e-05
0.444203
0.418092
0.39322
0.369353
0.346304
0.32391
0.302044
0.28061
0.259552
0.238839
0.218472
0.19847
0.178876
0.159752
0.141186
0.123293
0.106224
0.0901706
0.0753651
0.0620492
0.0503923
0.0403446
0.0316109
0.024061
0.0175009
0.0118325
0.00712673
0.00353306
0.00117518
8.81641e-05
0.453749
0.427132
0.401798
0.377546
0.354176
0.33151
0.309403
0.287749
0.266478
0.245552
0.224962
0.204723
0.18487
0.165462
0.146578
0.128327
0.110853
0.094341
0.0790217
0.0651491
0.0529333
0.0423937
0.033269
0.0253552
0.018497
0.0125592
0.00760084
0.0037856
0.0012643
9.52113e-05
0.462135
0.435039
0.409288
0.384688
0.36103
0.338125
0.315812
0.293973
0.272526
0.251425
0.230653
0.210217
0.190149
0.1705
0.151347
0.132791
0.114969
0.0980627
0.0822991
0.0679413
0.0552299
0.0442435
0.0347612
0.026513
0.0193878
0.0132122
0.00803014
0.00401617
0.00134626
0.000101731
0.469394
0.441852
0.415722
0.39081
0.366899
0.343785
0.321296
0.299302
0.277711
0.256468
0.235547
0.21495
0.194704
0.174856
0.155476
0.136663
0.118548
0.101306
0.085165
0.0703921
0.0572514
0.0458706
0.0360696
0.0275228
0.020164
0.0137834
0.00840824
0.00422077
0.00141946
0.000107586
0.475511
0.447571
0.421108
0.395923
0.371791
0.348497
0.325859
0.303736
0.282026
0.260667
0.239626
0.218902
0.198514
0.178505
0.158944
0.139923
0.121569
0.104055
0.0876032
0.072486
0.0589845
0.0472656
0.0371887
0.0283817
0.0208231
0.0142696
0.00873186
0.00439695
0.00148284
0.000112679
0.480454
0.452183
0.425439
0.400025
0.375706
0.352261
0.329499
0.307267
0.285459
0.264005
0.242867
0.222039
0.201539
0.181406
0.161704
0.142524
0.12399
0.106269
0.0895808
0.0741976
0.06041
0.0484127
0.0381037
0.0291053
0.0213791
0.0146801
0.00900554
0.00454635
0.00153672
0.00011702
0.484194
0.455666
0.428704
0.403109
0.378644
0.35508
0.332218
0.309903
0.288018
0.266491
0.245281
0.224377
0.203795
0.183572
0.16377
0.144478
0.125815
0.107947
0.091088
0.0755103
0.0615093
0.0492991
0.0388091
0.0296696
0.0218119
0.0149995
0.0092188
0.00466301
0.00157889
0.000120423
0.486703
0.458
0.430888
0.405169
0.380603
0.356956
0.334026
0.311653
0.289717
0.268141
0.246884
0.225931
0.205297
0.185017
0.165152
0.145787
0.127041
0.109077
0.0921061
0.0763997
0.0622563
0.0499025
0.0392889
0.0300528
0.0221053
0.015216
0.00936351
0.00474235
0.00160763
0.000122747
0.487962
0.459171
0.431983
0.4062
0.381582
0.357893
0.334929
0.312526
0.290564
0.268965
0.247684
0.226707
0.206048
0.18574
0.165844
0.146444
0.127657
0.109645
0.0926187
0.0768481
0.0626335
0.0502074
0.0395312
0.0302462
0.0222531
0.0153251
0.0094365
0.00478243
0.00162217
0.000123924
0.487962
0.459171
0.431983
0.4062
0.381582
0.357893
0.334929
0.312526
0.290564
0.268965
0.247684
0.226707
0.206048
0.18574
0.165844
0.146444
0.127657
0.109645
0.0926187
0.0768481
0.0626335
0.0502074
0.0395312
0.0302462
0.0222531
0.0153251
0.0094365
0.00478243
0.00162217
0.000123924
0.486703
0.458
0.430888
0.405169
0.380603
0.356956
0.334026
0.311653
0.289717
0.268141
0.246884
0.225931
0.205297
0.185017
0.165152
0.145787
0.127041
0.109077
0.0921061
0.0763997
0.0622563
0.0499025
0.0392889
0.0300528
0.0221053
0.015216
0.00936351
0.00474235
0.00160763
0.000122747
0.484194
0.455666
0.428704
0.403109
0.378644
0.35508
0.332218
0.309903
0.288018
0.266491
0.245281
0.224377
0.203795
0.183572
0.16377
0.144478
0.125815
0.107947
0.091088
0.0755103
0.0615093
0.0492991
0.0388091
0.0296696
0.0218119
0.0149995
0.0092188
0.00466301
0.00157889
0.000120423
0.480454
0.452183
0.425439
0.400025
0.375706
0.352261
0.329499
0.307267
0.285459
0.264005
0.242867
0.222039
0.201539
0.181406
0.161704
0.142524
0.12399
0.106269
0.0895808
0.0741976
0.06041
0.0484127
0.0381037
0.0291053
0.0213791
0.0146801
0.00900554
0.00454635
0.00153672
0.00011702
0.475511
0.447571
0.421108
0.395923
0.371791
0.348497
0.325859
0.303736
0.282026
0.260667
0.239626
0.218902
0.198514
0.178505
0.158944
0.139923
0.121569
0.104055
0.0876032
0.072486
0.0589845
0.0472656
0.0371887
0.0283817
0.0208231
0.0142696
0.00873186
0.00439695
0.00148284
0.000112679
0.469394
0.441852
0.415722
0.39081
0.366899
0.343785
0.321296
0.299302
0.277711
0.256468
0.235547
0.21495
0.194704
0.174856
0.155476
0.136663
0.118548
0.101306
0.085165
0.0703921
0.0572514
0.0458706
0.0360696
0.0275228
0.020164
0.0137834
0.00840824
0.00422077
0.00141946
0.000107586
0.462135
0.435039
0.409288
0.384688
0.36103
0.338125
0.315812
0.293973
0.272526
0.251425
0.230653
0.210217
0.190149
0.1705
0.151347
0.132791
0.114969
0.0980627
0.0822991
0.0679413
0.0552299
0.0442435
0.0347612
0.026513
0.0193878
0.0132122
0.00803014
0.00401617
0.00134626
0.000101731
0.453749
0.427132
0.401798
0.377546
0.354176
0.33151
0.309403
0.287749
0.266478
0.245552
0.224962
0.204723
0.18487
0.165462
0.146578
0.128327
0.110853
0.094341
0.0790217
0.0651491
0.0529333
0.0423937
0.033269
0.0253552
0.018497
0.0125592
0.00760084
0.0037856
0.0012643
9.52113e-05
0.444203
0.418092
0.39322
0.369353
0.346304
0.32391
0.302044
0.28061
0.259552
0.238839
0.218472
0.19847
0.178876
0.159752
0.141186
0.123293
0.106224
0.0901706
0.0753651
0.0620492
0.0503923
0.0403446
0.0316109
0.024061
0.0175009
0.0118325
0.00712673
0.00353306
0.00117518
8.81641e-05
0.433136
0.407784
0.383441
0.359994
0.337298
0.31521
0.293618
0.272444
0.251639
0.231186
0.211089
0.191378
0.1721
0.153323
0.135141
0.117675
0.101087
0.0855725
0.0713638
0.0586833
0.0476477
0.0381297
0.029814
0.0226509
0.0164159
0.0110452
0.00661745
0.00326415
0.00108098
8.07651e-05
)
;

boundaryField
{
    walls
    {
        type            fixedValue;
        value           uniform 1e-10;
    }
    inlet
    {
        type            cyclic;
    }
    outlet
    {
        type            cyclic;
    }
}


// ************************************************************************* //
