/*--------------------------------*- C++ -*----------------------------------*\
| =========                 |                                                 |
| \\      /  F ield         | OpenFOAM: The Open Source CFD Toolbox           |
|  \\    /   O peration     | Version:  2306                                  |
|   \\  /    A nd           | Website:  www.openfoam.com                      |
|    \\/     M anipulation  |                                                 |
\*---------------------------------------------------------------------------*/
FoamFile
{
    version     2.0;
    format      ascii;
    arch        "LSB;label=32;scalar=64";
    class       volScalarField;
    location    "24528";
    object      epsilon;
}
// * * * * * * * * * * * * * * * * * * * * * * * * * * * * * * * * * * * * * //

dimensions      [0 2 -3 0 0 0 0];

internalField   nonuniform List<scalar> 
100
(
0.001287
0.00588898
0.0129976
0.0235998
0.0398712
0.0629683
0.0917953
0.121026
0.143572
0.15615
0.159871
0.157454
0.1514
0.143496
0.134873
0.126197
0.117831
0.109954
0.102639
0.0958993
0.089714
0.0840476
0.0788578
0.0741012
0.069736
0.0657231
0.062027
0.0586159
0.0554611
0.0525373
0.0498219
0.0472949
0.0449387
0.0427375
0.0406774
0.0387458
0.0369317
0.0352253
0.0336175
0.0321005
0.030667
0.0293107
0.0280257
0.0268067
0.0256489
0.0245481
0.0235001
0.0225015
0.021549
0.0206394
0.0197701
0.0189385
0.0181423
0.0173794
0.0166477
0.0159455
0.015271
0.0146227
0.0139991
0.013399
0.012821
0.012264
0.011727
0.0112089
0.0107089
0.0102261
0.00975969
0.00930898
0.0088733
0.00845203
0.00804462
0.00765057
0.00726942
0.00690076
0.00654425
0.00619957
0.00586648
0.00554478
0.00523432
0.004935
0.00464678
0.00436969
0.00410379
0.00384921
0.00360615
0.00337485
0.00315561
0.00294878
0.00275474
0.00257393
0.0024068
0.00225383
0.00211549
0.00199229
0.00188473
0.00179332
0.00171864
0.00166131
0.00162209
0.0016019
)
;

boundaryField
{
    inlet
    {
        type            cyclic;
    }
    outlet
    {
        type            cyclic;
    }
    channelCenter
    {
        type            symmetryPlane;
    }
    lowerWall
    {
        type            fixedValue;
        value           uniform 1e-10;
    }
    frontAndBack
    {
        type            empty;
    }
}


// ************************************************************************* //
