/*--------------------------------*- C++ -*----------------------------------*\
| =========                 |                                                 |
| \\      /  F ield         | OpenFOAM: The Open Source CFD Toolbox           |
|  \\    /   O peration     | Version:  2306                                  |
|   \\  /    A nd           | Website:  www.openfoam.com                      |
|    \\/     M anipulation  |                                                 |
\*---------------------------------------------------------------------------*/
FoamFile
{
    version     2.0;
    format      ascii;
    arch        "LSB;label=32;scalar=64";
    class       volScalarField;
    location    "24528";
    object      p;
}
// * * * * * * * * * * * * * * * * * * * * * * * * * * * * * * * * * * * * * //

dimensions      [0 2 -2 0 0 0 0];

internalField   nonuniform List<scalar> 
100
(
-1.19563e-17
-8.57485e-18
-2.1287e-17
-4.06603e-17
-5.84472e-17
-7.57815e-17
-9.31341e-17
-1.11433e-16
-1.32943e-16
-1.58682e-16
-1.88784e-16
-2.21368e-16
-2.58068e-16
-2.99565e-16
-3.48368e-16
-3.97782e-16
-4.54988e-16
-5.07681e-16
-5.67296e-16
-6.3123e-16
-7.02467e-16
-7.69029e-16
-8.42419e-16
-9.07999e-16
-9.73205e-16
-1.04125e-15
-1.11579e-15
-1.20089e-15
-1.29663e-15
-1.35797e-15
-1.42878e-15
-1.51848e-15
-1.60205e-15
-1.67632e-15
-1.77207e-15
-1.88756e-15
-1.98579e-15
-2.06296e-15
-2.13273e-15
-2.23453e-15
-2.31719e-15
-2.40185e-15
-2.48843e-15
-2.60728e-15
-2.70981e-15
-2.78909e-15
-2.88393e-15
-2.96855e-15
-3.05838e-15
-3.06792e-15
-3.17475e-15
-3.22153e-15
-3.27062e-15
-3.33923e-15
-3.43293e-15
-3.49841e-15
-3.53721e-15
-3.55008e-15
-3.58363e-15
-3.58976e-15
-3.64486e-15
-3.71535e-15
-3.78427e-15
-3.76606e-15
-3.76986e-15
-3.79659e-15
-3.78039e-15
-3.80817e-15
-3.83143e-15
-3.84735e-15
-3.79234e-15
-3.77485e-15
-3.80202e-15
-3.81061e-15
-3.86501e-15
-3.89778e-15
-3.90607e-15
-3.88618e-15
-3.90307e-15
-3.91821e-15
-3.93287e-15
-3.9106e-15
-3.89539e-15
-3.97266e-15
-3.93955e-15
-3.78846e-15
-3.71235e-15
-3.70825e-15
-3.66601e-15
-3.63044e-15
-3.60446e-15
-3.54511e-15
-3.4845e-15
-3.4251e-15
-3.44859e-15
-3.43876e-15
-3.43209e-15
-3.42742e-15
-3.42473e-15
-3.42389e-15
)
;

boundaryField
{
    inlet
    {
        type            cyclic;
    }
    outlet
    {
        type            cyclic;
    }
    channelCenter
    {
        type            symmetryPlane;
    }
    lowerWall
    {
        type            zeroGradient;
    }
    frontAndBack
    {
        type            empty;
    }
}


// ************************************************************************* //
