/*--------------------------------*- C++ -*----------------------------------*\
| =========                 |                                                 |
| \\      /  F ield         | OpenFOAM: The Open Source CFD Toolbox           |
|  \\    /   O peration     | Version:  2306                                  |
|   \\  /    A nd           | Website:  www.openfoam.com                      |
|    \\/     M anipulation  |                                                 |
\*---------------------------------------------------------------------------*/
FoamFile
{
    version     2.0;
    format      ascii;
    arch        "LSB;label=32;scalar=64";
    class       volVectorField;
    location    "24528";
    object      U;
}
// * * * * * * * * * * * * * * * * * * * * * * * * * * * * * * * * * * * * * //

dimensions      [0 1 -1 0 0 0 0];

internalField   nonuniform List<vector> 
100
(
(0.0664527 0 -3.88209e-17)
(0.200563 0 1.79185e-16)
(0.337367 0 8.58203e-17)
(0.476614 0 9.92615e-17)
(0.617504 0 1.0444e-16)
(0.757798 0 1.08958e-16)
(0.892715 0 1.11624e-16)
(1.01622 0 1.1382e-16)
(1.12484 0 1.1851e-16)
(1.21873 0 1.2487e-16)
(1.2998 0 1.25168e-16)
(1.37022 0 1.25985e-16)
(1.43197 0 1.29727e-16)
(1.48666 0 1.33275e-16)
(1.53557 0 1.31513e-16)
(1.57974 0 1.31295e-16)
(1.61996 0 1.35615e-16)
(1.6569 0 1.37565e-16)
(1.69106 0 1.38818e-16)
(1.72286 0 1.38362e-16)
(1.75264 0 1.41572e-16)
(1.78068 0 1.38629e-16)
(1.80719 0 1.27847e-16)
(1.83238 0 1.21857e-16)
(1.8564 0 1.21042e-16)
(1.87938 0 1.23467e-16)
(1.90144 0 1.26143e-16)
(1.92268 0 1.22316e-16)
(1.94317 0 1.08336e-16)
(1.963 0 9.31173e-17)
(1.98222 0 8.47741e-17)
(2.00089 0 8.96268e-17)
(2.01905 0 9.54285e-17)
(2.03676 0 1.02895e-16)
(2.05404 0 1.04258e-16)
(2.07094 0 9.6078e-17)
(2.08748 0 8.59266e-17)
(2.10368 0 7.70725e-17)
(2.11958 0 7.51895e-17)
(2.1352 0 7.34175e-17)
(2.15055 0 7.77656e-17)
(2.16565 0 8.73708e-17)
(2.18052 0 8.53902e-17)
(2.19517 0 8.85047e-17)
(2.20962 0 8.74161e-17)
(2.22388 0 7.22826e-17)
(2.23796 0 6.63253e-17)
(2.25187 0 5.63464e-17)
(2.26563 0 3.72633e-17)
(2.27923 0 3.30505e-17)
(2.29269 0 2.35481e-17)
(2.30601 0 9.87172e-18)
(2.3192 0 7.56536e-18)
(2.33227 0 8.54033e-18)
(2.34522 0 -3.20458e-19)
(2.35806 0 -4.85937e-17)
(2.37078 0 -1.01273e-16)
(2.3834 0 -1.31053e-16)
(2.39592 0 -1.44881e-16)
(2.40834 0 -1.20006e-16)
(2.42066 0 -1.01274e-16)
(2.43289 0 -1.20217e-16)
(2.44502 0 -1.09713e-16)
(2.45705 0 -1.03254e-16)
(2.469 0 -1.20781e-16)
(2.48085 0 -1.19546e-16)
(2.4926 0 -1.02212e-16)
(2.50426 0 -8.82155e-17)
(2.51582 0 -8.96011e-17)
(2.52729 0 -1.00406e-16)
(2.53864 0 -1.19238e-16)
(2.54989 0 -1.02202e-16)
(2.56103 0 -5.49965e-17)
(2.57205 0 -5.01241e-17)
(2.58294 0 -6.99086e-17)
(2.5937 0 -8.41516e-17)
(2.60431 0 -9.41092e-17)
(2.61477 0 -1.06911e-16)
(2.62507 0 -1.09211e-16)
(2.63518 0 -9.9655e-17)
(2.64511 0 -7.94817e-17)
(2.65482 0 -6.07139e-17)
(2.6643 0 -4.80585e-17)
(2.67353 0 -7.90146e-17)
(2.68249 0 -1.76575e-16)
(2.69115 0 -1.84411e-16)
(2.69948 0 -1.25748e-16)
(2.70746 0 -1.17145e-16)
(2.71505 0 -1.15328e-16)
(2.72221 0 -1.26491e-16)
(2.72892 0 -1.7246e-16)
(2.73514 0 -1.98267e-16)
(2.74083 0 -1.87822e-16)
(2.74595 0 -1.56019e-16)
(2.75046 0 -1.18344e-16)
(2.75433 0 -1.06114e-16)
(2.75751 0 -8.83667e-17)
(2.75997 0 -6.78528e-17)
(2.76166 0 -4.3399e-17)
(2.76253 0 -1.50596e-17)
)
;

boundaryField
{
    inlet
    {
        type            cyclic;
    }
    outlet
    {
        type            cyclic;
    }
    channelCenter
    {
        type            symmetryPlane;
    }
    lowerWall
    {
        type            noSlip;
    }
    frontAndBack
    {
        type            empty;
    }
}


// ************************************************************************* //
