/*--------------------------------*- C++ -*----------------------------------*\
| =========                 |                                                 |
| \\      /  F ield         | OpenFOAM: The Open Source CFD Toolbox           |
|  \\    /   O peration     | Version:  2306                                  |
|   \\  /    A nd           | Website:  www.openfoam.com                      |
|    \\/     M anipulation  |                                                 |
\*---------------------------------------------------------------------------*/
FoamFile
{
    version     2.0;
    format      ascii;
    arch        "LSB;label=32;scalar=64";
    class       volScalarField;
    location    "8367";
    object      p;
}
// * * * * * * * * * * * * * * * * * * * * * * * * * * * * * * * * * * * * * //

dimensions      [0 2 -2 0 0 0 0];

internalField   nonuniform List<scalar> 
100
(
-6.53194e-18
1.87644e-17
1.48912e-17
3.40329e-18
-5.05548e-18
-1.32518e-17
-2.23228e-17
-3.52811e-17
-5.44071e-17
-8.03423e-17
-1.14222e-16
-1.53848e-16
-2.03172e-16
-2.60365e-16
-3.32628e-16
-4.09364e-16
-4.99063e-16
-5.86032e-16
-6.89806e-16
-8.03663e-16
-9.3598e-16
-1.07195e-15
-1.22263e-15
-1.36366e-15
-1.51512e-15
-1.67692e-15
-1.83428e-15
-2.00681e-15
-2.18983e-15
-2.32835e-15
-2.47564e-15
-2.62769e-15
-2.78502e-15
-2.93058e-15
-3.06839e-15
-3.25436e-15
-3.43609e-15
-3.56751e-15
-3.68163e-15
-3.85304e-15
-4.00618e-15
-4.12554e-15
-4.2356e-15
-4.45825e-15
-4.64424e-15
-4.81547e-15
-5.02853e-15
-5.2055e-15
-5.40164e-15
-5.53985e-15
-5.7597e-15
-5.92543e-15
-6.07956e-15
-6.23608e-15
-6.40581e-15
-6.56595e-15
-6.6972e-15
-6.76409e-15
-6.85576e-15
-6.92222e-15
-7.0162e-15
-7.16613e-15
-7.29203e-15
-7.30834e-15
-7.32387e-15
-7.47555e-15
-7.51658e-15
-7.66453e-15
-7.78196e-15
-7.86769e-15
-7.87493e-15
-7.88181e-15
-7.94252e-15
-7.95779e-15
-8.02821e-15
-8.05676e-15
-7.9892e-15
-7.90045e-15
-7.87922e-15
-7.87651e-15
-7.86642e-15
-7.84711e-15
-7.77588e-15
-7.84513e-15
-7.78437e-15
-7.68243e-15
-7.76349e-15
-7.84541e-15
-7.92353e-15
-7.99439e-15
-8.11213e-15
-8.15459e-15
-8.24617e-15
-8.2973e-15
-8.44113e-15
-8.52014e-15
-8.57288e-15
-8.61447e-15
-8.6409e-15
-8.64971e-15
)
;

boundaryField
{
    inlet
    {
        type            cyclic;
    }
    outlet
    {
        type            cyclic;
    }
    channelCenter
    {
        type            symmetryPlane;
    }
    lowerWall
    {
        type            zeroGradient;
    }
    frontAndBack
    {
        type            empty;
    }
}


// ************************************************************************* //
