/*--------------------------------*- C++ -*----------------------------------*\
| =========                 |                                                 |
| \\      /  F ield         | OpenFOAM: The Open Source CFD Toolbox           |
|  \\    /   O peration     | Version:  2306                                  |
|   \\  /    A nd           | Website:  www.openfoam.com                      |
|    \\/     M anipulation  |                                                 |
\*---------------------------------------------------------------------------*/
FoamFile
{
    version     2.0;
    format      ascii;
    arch        "LSB;label=32;scalar=64";
    class       surfaceScalarField;
    location    "8367";
    object      phi;
}
// * * * * * * * * * * * * * * * * * * * * * * * * * * * * * * * * * * * * * //

dimensions      [0 3 -1 0 0 0 0];

oriented        oriented;

internalField   nonuniform List<scalar> 
99
(
3.42832e-19
-4.7367e-19
-8.25673e-19
-8.11472e-19
-4.7877e-19
-2.25605e-19
1.12054e-19
4.07509e-19
5.73025e-19
6.88295e-19
7.09012e-19
7.11244e-19
7.0078e-19
8.74254e-19
8.94734e-19
8.39368e-19
8.53272e-19
1.00055e-18
9.83743e-19
1.13804e-18
1.13755e-18
1.1352e-18
1.11625e-18
1.14835e-18
1.15679e-18
1.0973e-18
1.09641e-18
1.06654e-18
8.07945e-19
7.56779e-19
8.34837e-19
1.00161e-18
8.05883e-19
9.07252e-19
1.47566e-18
1.63067e-18
1.146e-18
1.18217e-18
1.06823e-18
1.11356e-18
1.20492e-18
1.29344e-18
1.56689e-18
1.7975e-18
1.75956e-18
1.77727e-18
1.95692e-18
2.04766e-18
1.40923e-18
1.83387e-18
1.60772e-18
1.58364e-18
1.70566e-18
1.76637e-18
1.24826e-18
1.30392e-18
7.17081e-19
5.87484e-19
6.51625e-19
4.19601e-19
3.37888e-19
5.0611e-19
3.01643e-19
4.18714e-19
1.30067e-18
1.25155e-18
2.1234e-18
2.20836e-18
2.15601e-18
2.43457e-18
2.50313e-18
2.60129e-18
2.63154e-18
2.83948e-18
2.76962e-18
1.76644e-18
1.95634e-18
2.08603e-18
2.23488e-18
2.00058e-18
1.7719e-18
1.66603e-18
1.43545e-18
8.74312e-19
6.06904e-19
2.00083e-18
1.60972e-18
2.03368e-18
2.23505e-18
2.54628e-18
1.68585e-18
2.14104e-18
2.21648e-18
2.13461e-18
2.27187e-18
2.15262e-18
1.45177e-18
9.87558e-19
3.01305e-19
)
;

boundaryField
{
    inlet
    {
        type            cyclic;
        value           nonuniform List<scalar> 
100
(
-1.70295e-05
-5.26064e-05
-9.05841e-05
-0.000131039
-0.00017395
-0.00021904
-0.000265428
-0.00031132
-0.000354597
-0.000394118
-0.000430008
-0.000462975
-0.000493767
-0.000522994
-0.000551116
-0.00057848
-0.000605346
-0.000631913
-0.000658339
-0.00068475
-0.000711248
-0.00073792
-0.000764837
-0.000792065
-0.000819657
-0.000847665
-0.000876133
-0.000905103
-0.000934615
-0.000964705
-0.000995408
-0.00102676
-0.00105879
-0.00109153
-0.00112501
-0.00115927
-0.00119433
-0.00123022
-0.00126699
-0.00130464
-0.00134323
-0.00138278
-0.00142331
-0.00146487
-0.00150749
-0.00155119
-0.00159601
-0.00164199
-0.00168915
-0.00173755
-0.0017872
-0.00183815
-0.00189044
-0.00194409
-0.00199916
-0.00205567
-0.00211368
-0.00217321
-0.00223432
-0.00229704
-0.00236141
-0.00242748
-0.00249528
-0.00256488
-0.0026363
-0.0027096
-0.00278481
-0.00286199
-0.00294117
-0.00302241
-0.00310575
-0.00319124
-0.00327891
-0.00336881
-0.00346099
-0.00355548
-0.00365233
-0.00375156
-0.00385323
-0.00395736
-0.00406397
-0.00417311
-0.00428478
-0.00439901
-0.00451582
-0.0046352
-0.00475716
-0.00488171
-0.00500882
-0.00513849
-0.0052707
-0.00540541
-0.00554258
-0.00568219
-0.00582418
-0.00596848
-0.00611503
-0.00626375
-0.00641454
-0.00656727
)
;
    }
    outlet
    {
        type            cyclic;
        value           nonuniform List<scalar> 
100
(
1.70295e-05
5.26064e-05
9.05841e-05
0.000131039
0.00017395
0.00021904
0.000265428
0.00031132
0.000354597
0.000394118
0.000430008
0.000462975
0.000493767
0.000522994
0.000551116
0.00057848
0.000605346
0.000631913
0.000658339
0.00068475
0.000711248
0.00073792
0.000764837
0.000792065
0.000819657
0.000847665
0.000876133
0.000905103
0.000934615
0.000964705
0.000995408
0.00102676
0.00105879
0.00109153
0.00112501
0.00115927
0.00119433
0.00123022
0.00126699
0.00130464
0.00134323
0.00138278
0.00142331
0.00146487
0.00150749
0.00155119
0.00159601
0.00164199
0.00168915
0.00173755
0.0017872
0.00183815
0.00189044
0.00194409
0.00199916
0.00205567
0.00211368
0.00217321
0.00223432
0.00229704
0.00236141
0.00242748
0.00249528
0.00256488
0.0026363
0.0027096
0.00278481
0.00286199
0.00294117
0.00302241
0.00310575
0.00319124
0.00327891
0.00336881
0.00346099
0.00355548
0.00365233
0.00375156
0.00385323
0.00395736
0.00406397
0.00417311
0.00428478
0.00439901
0.00451582
0.0046352
0.00475716
0.00488171
0.00500882
0.00513849
0.0052707
0.00540541
0.00554258
0.00568219
0.00582418
0.00596848
0.00611503
0.00626375
0.00641454
0.00656727
)
;
    }
    channelCenter
    {
        type            symmetryPlane;
        value           uniform 0;
    }
    lowerWall
    {
        type            calculated;
        value           uniform 0;
    }
    frontAndBack
    {
        type            empty;
        value           nonuniform List<scalar> 0();
    }
}


// ************************************************************************* //
