/*--------------------------------*- C++ -*----------------------------------*\
| =========                 |                                                 |
| \\      /  F ield         | OpenFOAM: The Open Source CFD Toolbox           |
|  \\    /   O peration     | Version:  2306                                  |
|   \\  /    A nd           | Website:  www.openfoam.com                      |
|    \\/     M anipulation  |                                                 |
\*---------------------------------------------------------------------------*/
FoamFile
{
    version     2.0;
    format      ascii;
    arch        "LSB;label=32;scalar=64";
    class       volVectorField;
    location    "8367";
    object      U;
}
// * * * * * * * * * * * * * * * * * * * * * * * * * * * * * * * * * * * * * //

dimensions      [0 1 -1 0 0 0 0];

internalField   nonuniform List<vector> 
100
(
(0.0668365 0 -3.21447e-17)
(0.20172 0 1.67421e-17)
(0.33936 0 -3.57268e-17)
(0.479631 0 -1.58849e-17)
(0.622057 0 2.40103e-18)
(0.765297 0 2.42845e-17)
(0.90605 0 4.61884e-17)
(1.03827 0 7.15573e-17)
(1.15542 0 9.20658e-17)
(1.25467 0 1.05021e-16)
(1.33745 0 1.11685e-16)
(1.40688 0 1.14322e-16)
(1.46596 0 1.16305e-16)
(1.51703 0 1.24825e-16)
(1.56185 0 1.32951e-16)
(1.60171 0 1.29818e-16)
(1.63756 0 1.28469e-16)
(1.67013 0 1.36285e-16)
(1.69997 0 1.44144e-16)
(1.72752 0 1.52402e-16)
(1.75312 0 1.60562e-16)
(1.77705 0 1.59328e-16)
(1.79952 0 1.56234e-16)
(1.82074 0 1.55954e-16)
(1.84085 0 1.55269e-16)
(1.85999 0 1.52726e-16)
(1.87825 0 1.50394e-16)
(1.89575 0 1.46021e-16)
(1.91256 0 1.3231e-16)
(1.92875 0 1.1757e-16)
(1.94438 0 1.15186e-16)
(1.95951 0 1.25317e-16)
(1.97418 0 1.24257e-16)
(1.98844 0 1.23632e-16)
(2.00232 0 1.47152e-16)
(2.01585 0 1.71475e-16)
(2.02907 0 1.57731e-16)
(2.04201 0 1.4007e-16)
(2.05468 0 1.38402e-16)
(2.06711 0 1.362e-16)
(2.07932 0 1.41404e-16)
(2.09132 0 1.5145e-16)
(2.10314 0 1.66476e-16)
(2.11479 0 1.84474e-16)
(2.12627 0 1.96209e-16)
(2.13761 0 1.92642e-16)
(2.14882 0 1.96094e-16)
(2.1599 0 2.0359e-16)
(2.17086 0 1.8369e-16)
(2.18171 0 1.7445e-16)
(2.19247 0 1.8827e-16)
(2.20313 0 1.84865e-16)
(2.21371 0 1.84321e-16)
(2.2242 0 1.8902e-16)
(2.23462 0 1.7116e-16)
(2.24497 0 1.44311e-16)
(2.25524 0 1.13181e-16)
(2.26546 0 7.90869e-17)
(2.27561 0 7.45012e-17)
(2.2857 0 7.08539e-17)
(2.29573 0 6.42719e-17)
(2.30571 0 7.31131e-17)
(2.31562 0 6.43046e-17)
(2.32549 0 5.70079e-17)
(2.33529 0 1.06168e-16)
(2.34504 0 1.61747e-16)
(2.35472 0 1.98465e-16)
(2.36434 0 2.35881e-16)
(2.3739 0 2.36834e-16)
(2.38339 0 2.35868e-16)
(2.3928 0 2.50583e-16)
(2.40214 0 2.46274e-16)
(2.41139 0 2.50169e-16)
(2.42055 0 2.61746e-16)
(2.42961 0 2.49845e-16)
(2.43856 0 1.99313e-16)
(2.44739 0 1.52233e-16)
(2.4561 0 1.52815e-16)
(2.46466 0 1.67087e-16)
(2.47307 0 1.64907e-16)
(2.48131 0 1.40341e-16)
(2.48936 0 1.22651e-16)
(2.49722 0 1.11285e-16)
(2.50485 0 7.44974e-17)
(2.51225 0 5.51431e-17)
(2.51938 0 1.23087e-16)
(2.52622 0 1.68791e-16)
(2.53276 0 1.7455e-16)
(2.53897 0 1.99586e-16)
(2.54482 0 2.13654e-16)
(2.55028 0 1.89428e-16)
(2.55533 0 1.75706e-16)
(2.55994 0 2.05343e-16)
(2.56409 0 2.21963e-16)
(2.56774 0 2.30129e-16)
(2.57086 0 2.14007e-16)
(2.57343 0 1.64137e-16)
(2.57542 0 1.0869e-16)
(2.57678 0 6.01638e-17)
(2.57748 0 8.91934e-18)
)
;

boundaryField
{
    inlet
    {
        type            cyclic;
    }
    outlet
    {
        type            cyclic;
    }
    channelCenter
    {
        type            symmetryPlane;
    }
    lowerWall
    {
        type            noSlip;
    }
    frontAndBack
    {
        type            empty;
    }
}


// ************************************************************************* //
