/*--------------------------------*- C++ -*----------------------------------*\
| =========                 |                                                 |
| \\      /  F ield         | OpenFOAM: The Open Source CFD Toolbox           |
|  \\    /   O peration     | Version:  2306                                  |
|   \\  /    A nd           | Website:  www.openfoam.com                      |
|    \\/     M anipulation  |                                                 |
\*---------------------------------------------------------------------------*/
FoamFile
{
    version     2.0;
    format      ascii;
    arch        "LSB;label=32;scalar=64";
    class       volScalarField;
    location    "12336";
    object      epsilon;
}
// * * * * * * * * * * * * * * * * * * * * * * * * * * * * * * * * * * * * * //

dimensions      [0 2 -3 0 0 0 0];

internalField   nonuniform List<scalar> 
2800
(
0.000265129
0.000246583
0.00023067
0.000217446
0.000206649
0.000198026
0.000191363
0.0001865
0.00018332
0.000181748
0.000181748
0.00018332
0.0001865
0.000191363
0.000198026
0.000206649
0.000217446
0.00023067
0.000246583
0.000265129
0.000246499
0.00022483
0.00020722
0.000192841
0.000181214
0.000171991
0.000164906
0.000159757
0.000156402
0.000154747
0.000154747
0.000156402
0.000159757
0.000164906
0.000171991
0.000181214
0.000192841
0.00020722
0.00022483
0.000246499
0.000230583
0.000207183
0.00018832
0.00017314
0.000161005
0.000151462
0.000144179
0.000138912
0.000135492
0.000133808
0.000133808
0.000135492
0.000138912
0.000144179
0.000151462
0.000161005
0.00017314
0.00018832
0.000207183
0.000230583
0.000217368
0.000192794
0.000173121
0.000157428
0.000145
0.000135305
0.000127953
0.000122664
0.00011924
0.000117559
0.000117559
0.00011924
0.000122664
0.000127953
0.000135305
0.000145
0.000157428
0.000173121
0.000192794
0.000217368
0.000206584
0.000181168
0.000160979
0.000144989
0.000132416
0.000122674
0.00011533
0.000110069
0.000106676
0.000105012
0.000105012
0.000106676
0.000110069
0.00011533
0.000122674
0.000132416
0.000144989
0.000160979
0.000181168
0.000206584
0.000197971
0.000171949
0.000151434
0.000135289
0.000122668
0.000112941
0.000105643
0.000100436
9.7087e-05
9.54481e-05
9.54481e-05
9.7087e-05
0.000100436
0.000105643
0.000112941
0.000122668
0.000135289
0.000151434
0.000171949
0.000197971
0.000191318
0.000164869
0.000144152
0.000127936
0.00011532
0.000105639
9.84028e-05
9.32564e-05
8.99538e-05
8.834e-05
8.834e-05
8.99538e-05
9.32564e-05
9.84028e-05
0.000105639
0.00011532
0.000127936
0.000144152
0.000164869
0.000191318
0.000186462
0.000159725
0.000138888
0.000122646
0.000110058
0.00010043
9.32539e-05
8.81622e-05
8.49005e-05
8.33084e-05
8.33084e-05
8.49005e-05
8.81622e-05
9.32539e-05
0.00010043
0.000110058
0.000122646
0.000138888
0.000159725
0.000186462
0.000183286
0.000156373
0.000135469
0.000119223
0.000106664
9.70797e-05
8.99498e-05
8.4899e-05
8.16673e-05
8.00909e-05
8.00909e-05
8.16673e-05
8.4899e-05
8.99498e-05
9.70797e-05
0.000106664
0.000119223
0.000135469
0.000156373
0.000183286
0.000181717
0.00015472
0.000133786
0.000117542
0.000105
9.54403e-05
8.83354e-05
8.33062e-05
8.00902e-05
7.85222e-05
7.85222e-05
8.00902e-05
8.33062e-05
8.83354e-05
9.54403e-05
0.000105
0.000117542
0.000133786
0.00015472
0.000181717
0.000181717
0.00015472
0.000133786
0.000117542
0.000105
9.54403e-05
8.83354e-05
8.33062e-05
8.00902e-05
7.85222e-05
7.85222e-05
8.00902e-05
8.33062e-05
8.83354e-05
9.54403e-05
0.000105
0.000117542
0.000133786
0.00015472
0.000181717
0.000183286
0.000156373
0.000135469
0.000119223
0.000106664
9.70797e-05
8.99498e-05
8.4899e-05
8.16673e-05
8.00909e-05
8.00909e-05
8.16673e-05
8.4899e-05
8.99498e-05
9.70797e-05
0.000106664
0.000119223
0.000135469
0.000156373
0.000183286
0.000186462
0.000159725
0.000138888
0.000122646
0.000110058
0.00010043
9.32539e-05
8.81622e-05
8.49005e-05
8.33084e-05
8.33084e-05
8.49005e-05
8.81622e-05
9.32539e-05
0.00010043
0.000110058
0.000122646
0.000138888
0.000159725
0.000186462
0.000191318
0.000164869
0.000144152
0.000127936
0.00011532
0.000105639
9.84028e-05
9.32564e-05
8.99538e-05
8.834e-05
8.834e-05
8.99538e-05
9.32564e-05
9.84028e-05
0.000105639
0.00011532
0.000127936
0.000144152
0.000164869
0.000191318
0.000197971
0.000171949
0.000151434
0.000135289
0.000122668
0.000112941
0.000105643
0.000100436
9.7087e-05
9.54481e-05
9.54481e-05
9.7087e-05
0.000100436
0.000105643
0.000112941
0.000122668
0.000135289
0.000151434
0.000171949
0.000197971
0.000206584
0.000181168
0.000160979
0.000144989
0.000132416
0.000122674
0.00011533
0.000110069
0.000106676
0.000105012
0.000105012
0.000106676
0.000110069
0.00011533
0.000122674
0.000132417
0.000144989
0.000160979
0.000181168
0.000206584
0.000217368
0.000192794
0.000173121
0.000157428
0.000145
0.000135305
0.000127953
0.000122664
0.00011924
0.000117559
0.000117559
0.00011924
0.000122664
0.000127953
0.000135305
0.000145
0.000157428
0.000173121
0.000192794
0.000217368
0.000230583
0.000207183
0.00018832
0.00017314
0.000161005
0.000151462
0.000144179
0.000138912
0.000135492
0.000133808
0.000133808
0.000135492
0.000138912
0.000144179
0.000151462
0.000161005
0.00017314
0.00018832
0.000207183
0.000230583
0.000246499
0.00022483
0.00020722
0.000192841
0.000181214
0.000171991
0.000164906
0.000159757
0.000156402
0.000154747
0.000154747
0.000156402
0.000159757
0.000164906
0.000171991
0.000181214
0.000192841
0.00020722
0.00022483
0.000246499
0.000265129
0.000246583
0.00023067
0.000217446
0.000206649
0.000198026
0.000191363
0.0001865
0.00018332
0.000181748
0.000181748
0.00018332
0.0001865
0.000191363
0.000198026
0.000206649
0.000217446
0.00023067
0.000246583
0.000265129
0.000298868
0.000351372
0.000411823
0.000481035
0.000560001
0.000649888
0.000752031
0.000867936
0.000999262
0.00114778
0.00131528
0.00150344
0.0017135
0.0019458
0.00219899
0.00246872
0.00274557
0.00301206
0.00323857
0.0033805
0.00338681
0.00324241
0.00300425
0.00271701
0.00242455
0.00215202
0.00190604
0.00167594
0.00143058
0.00107426
0.000279385
0.000329185
0.000386518
0.000452255
0.000527373
0.000612999
0.000710426
0.00082112
0.000946713
0.00108898
0.00124976
0.00143086
0.00163378
0.00185933
0.00210692
0.0023734
0.00265117
0.00292532
0.00316947
0.00334158
0.00338725
0.00327113
0.00304922
0.00276412
0.0024652
0.00218293
0.00192771
0.00169073
0.00144085
0.00108052
0.000263693
0.000311022
0.000365713
0.000428554
0.000500486
0.000582603
0.000676171
0.000782634
0.000903613
0.0010409
0.00119638
0.00137197
0.00156939
0.0017898
0.0020332
0.00229736
0.00257616
0.00285682
0.0031159
0.00331446
0.00339786
0.00331968
0.00311326
0.00283077
0.00252466
0.00223144
0.00196575
0.00172076
0.00146518
0.00109859
0.000250767
0.000296073
0.00034856
0.000408987
0.000478266
0.000557464
0.000647818
0.000750749
0.000867862
0.00100094
0.00115191
0.00132273
0.00151528
0.00173096
0.00197023
0.00223159
0.00251006
0.00279459
0.00306419
0.00328275
0.00339652
0.00335156
0.00316101
0.00288324
0.00257227
0.00227005
0.00199529
0.00174329
0.00148287
0.00111143
0.000240209
0.000283868
0.000334541
0.000392972
0.000460052
0.000536822
0.000624493
0.000724462
0.000838313
0.00096782
0.00111491
0.00128161
0.00146987
0.00168131
0.00191671
0.00217514
0.00245252
0.00273916
0.00301605
0.00324949
0.00338705
0.00336991
0.00319438
0.00292244
0.00260849
0.00229916
0.00201687
0.00175898
0.00149463
0.00111965
0.00023175
0.000274084
0.000323289
0.0003801
0.000445387
0.000520171
0.000605641
0.00070317
0.000814324
0.000940866
0.00108473
0.00124796
0.00143259
0.00164039
0.00187237
0.00212806
0.00240403
0.00269169
0.00297355
0.00321788
0.00337366
0.00337903
0.00321682
0.00295092
0.00263536
0.0023206
0.00203224
0.00176954
0.00150209
0.0011246
0.000225193
0.000266491
0.000314547
0.000370083
0.000433957
0.000507173
0.000590899
0.00068649
0.000795498
0.000919676
0.00106096
0.00122141
0.00140311
0.00160793
0.00183709
0.00209041
0.00236499
0.00265302
0.00293819
0.00319031
0.00335963
0.00338246
0.00323133
0.00297101
0.00265473
0.00233595
0.00204289
0.00177643
0.00150661
0.00112739
0.000220393
0.000260926
0.000308131
0.000362723
0.000425549
0.000497597
0.000580023
0.00067417
0.000781577
0.000903987
0.00104334
0.0012017
0.0013812
0.00158377
0.00181076
0.00206221
0.00233559
0.00262367
0.00291096
0.00316842
0.00334731
0.00338287
0.00324027
0.00298453
0.00266805
0.00234646
0.00204997
0.00178074
0.0015092
0.00112883
0.000217246
0.000257274
0.000303917
0.000357886
0.000420016
0.00049129
0.000572855
0.000666043
0.000772385
0.000893621
0.00103168
0.00118866
0.00136669
0.00156775
0.00179327
0.00204344
0.00231597
0.00260396
0.00289251
0.0031533
0.00333829
0.00338217
0.00324532
0.00299283
0.00267637
0.002353
0.00205428
0.00178322
0.00151056
0.00112951
0.000215689
0.000255466
0.000301829
0.000355487
0.000417271
0.00048816
0.000569295
0.000662004
0.000767815
0.000888465
0.00102589
0.00118217
0.00135946
0.00155976
0.00178455
0.00203407
0.00230614
0.00259407
0.0028832
0.00314559
0.00333355
0.00338152
0.00324758
0.00299677
0.00268036
0.00235614
0.00205631
0.00178435
0.00151114
0.00112976
0.000215689
0.000255466
0.000301829
0.000355487
0.000417271
0.00048816
0.000569295
0.000662004
0.000767815
0.000888465
0.00102589
0.00118217
0.00135946
0.00155976
0.00178455
0.00203407
0.00230614
0.00259407
0.0028832
0.00314559
0.00333355
0.00338152
0.00324758
0.00299677
0.00268036
0.00235614
0.00205631
0.00178435
0.00151114
0.00112976
0.000217246
0.000257274
0.000303917
0.000357886
0.000420016
0.00049129
0.000572855
0.000666043
0.000772385
0.000893621
0.00103168
0.00118866
0.00136669
0.00156775
0.00179327
0.00204344
0.00231597
0.00260396
0.00289251
0.0031533
0.00333829
0.00338217
0.00324532
0.00299283
0.00267637
0.002353
0.00205428
0.00178322
0.00151056
0.00112951
0.000220393
0.000260926
0.000308131
0.000362723
0.000425549
0.000497597
0.000580023
0.00067417
0.000781577
0.000903987
0.00104334
0.0012017
0.0013812
0.00158377
0.00181076
0.00206221
0.00233559
0.00262367
0.00291096
0.00316842
0.00334731
0.00338287
0.00324027
0.00298453
0.00266805
0.00234646
0.00204997
0.00178074
0.0015092
0.00112883
0.000225193
0.000266491
0.000314547
0.000370083
0.000433957
0.000507173
0.000590899
0.00068649
0.000795498
0.000919676
0.00106096
0.00122141
0.00140311
0.00160793
0.00183709
0.00209041
0.00236499
0.00265302
0.00293819
0.00319031
0.00335963
0.00338246
0.00323133
0.00297101
0.00265473
0.00233595
0.00204289
0.00177643
0.00150661
0.00112739
0.00023175
0.000274084
0.000323289
0.0003801
0.000445387
0.000520171
0.000605641
0.00070317
0.000814324
0.000940866
0.00108473
0.00124796
0.00143259
0.00164039
0.00187237
0.00212806
0.00240403
0.00269169
0.00297355
0.00321788
0.00337366
0.00337903
0.00321682
0.00295092
0.00263536
0.0023206
0.00203224
0.00176954
0.00150209
0.0011246
0.000240209
0.000283868
0.000334541
0.000392972
0.000460052
0.000536822
0.000624493
0.000724462
0.000838313
0.00096782
0.00111491
0.00128161
0.00146987
0.00168131
0.00191671
0.00217514
0.00245252
0.00273916
0.00301605
0.00324949
0.00338705
0.00336991
0.00319438
0.00292244
0.00260849
0.00229916
0.00201687
0.00175898
0.00149463
0.00111965
0.000250767
0.000296073
0.00034856
0.000408987
0.000478266
0.000557464
0.000647818
0.000750749
0.000867862
0.00100094
0.00115191
0.00132273
0.00151528
0.00173096
0.00197023
0.00223159
0.00251006
0.00279459
0.0030642
0.00328275
0.00339652
0.00335156
0.00316101
0.00288324
0.00257227
0.00227005
0.00199529
0.00174329
0.00148287
0.00111143
0.000263693
0.000311022
0.000365713
0.000428554
0.000500486
0.000582603
0.000676171
0.000782634
0.000903613
0.0010409
0.00119638
0.00137197
0.00156939
0.0017898
0.0020332
0.00229736
0.00257616
0.00285682
0.0031159
0.00331446
0.00339786
0.00331968
0.00311326
0.00283077
0.00252466
0.00223144
0.00196575
0.00172076
0.00146518
0.00109859
0.000279385
0.000329185
0.000386518
0.000452255
0.000527373
0.000612999
0.000710426
0.00082112
0.000946713
0.00108898
0.00124976
0.00143086
0.00163378
0.00185933
0.00210692
0.0023734
0.00265117
0.00292532
0.00316947
0.00334158
0.00338725
0.00327113
0.00304922
0.00276412
0.0024652
0.00218293
0.00192771
0.00169073
0.00144085
0.00108052
0.000298868
0.000351372
0.000411823
0.000481035
0.000560001
0.000649888
0.000752031
0.000867936
0.000999262
0.00114778
0.00131528
0.00150344
0.0017135
0.0019458
0.00219899
0.00246872
0.00274557
0.00301206
0.00323857
0.0033805
0.00338681
0.00324241
0.00300425
0.00271701
0.00242455
0.00215202
0.00190604
0.00167594
0.00143058
0.00107426
0.000299168
0.00035169
0.000412201
0.000481489
0.000560539
0.000650513
0.000752743
0.000868736
0.00100015
0.00114875
0.00131633
0.00150458
0.00171473
0.00194715
0.00220049
0.00247041
0.00274754
0.00301442
0.00324144
0.00338403
0.00339103
0.0032471
0.00300916
0.00272186
0.00242916
0.00215631
0.00190999
0.00167957
0.00143383
0.00107684
0.000279517
0.000329356
0.000386724
0.000452501
0.000527661
0.00061333
0.000710801
0.000821542
0.000947187
0.00108951
0.00125037
0.00143156
0.00163459
0.00186028
0.00210802
0.00237466
0.00265258
0.00292684
0.00317101
0.00334298
0.00338833
0.00327185
0.00304975
0.00276454
0.00246558
0.00218331
0.00192809
0.00169108
0.00144116
0.00108074
0.000263801
0.000311148
0.000365866
0.00042874
0.000500712
0.000582878
0.000676502
0.000783031
0.000904091
0.00104147
0.00119706
0.00137278
0.00157034
0.0017909
0.00203445
0.00229876
0.00257766
0.00285836
0.00311734
0.00331562
0.00339853
0.00331978
0.00311305
0.00283043
0.00252433
0.00223119
0.00196559
0.00172067
0.00146511
0.00109853
0.000250858
0.000296177
0.000348685
0.000409142
0.00047846
0.000557707
0.000648121
0.000751121
0.000868317
0.00100149
0.00115256
0.00132351
0.00151618
0.001732
0.00197139
0.00223287
0.00251142
0.00279598
0.00306549
0.00328379
0.00339711
0.00335159
0.00316073
0.00288282
0.00257187
0.00226974
0.0019951
0.00174319
0.00148281
0.0011114
0.000240287
0.000283955
0.000334645
0.000393101
0.000460215
0.000537028
0.000624752
0.000724781
0.000838704
0.000968291
0.00111547
0.00128227
0.00147064
0.00168218
0.00191769
0.00217622
0.00245366
0.00274033
0.00301716
0.0032504
0.0033876
0.00337001
0.00319419
0.00292211
0.00260816
0.00229892
0.00201673
0.00175892
0.00149462
0.00111967
0.000231817
0.000274157
0.000323374
0.000380204
0.000445517
0.000520335
0.000605846
0.000703422
0.000814631
0.000941235
0.00108517
0.00124848
0.00143319
0.00164107
0.00187314
0.0021289
0.00240494
0.00269263
0.00297445
0.00321864
0.00337416
0.00337918
0.00321673
0.0029507
0.00263514
0.00232044
0.00203216
0.00176953
0.00150212
0.00112464
0.000225251
0.000266551
0.000314614
0.000370163
0.000434056
0.000507294
0.000591049
0.000686674
0.000795722
0.000919944
0.00106128
0.00122178
0.00140355
0.00160843
0.00183765
0.00209103
0.00236566
0.00265372
0.00293888
0.00319091
0.00336006
0.00338263
0.00323132
0.00297089
0.0026546
0.00233586
0.00204286
0.00177645
0.00150665
0.00112744
0.000220443
0.000260975
0.000308183
0.000362783
0.000425619
0.000497682
0.000580127
0.000674297
0.00078173
0.000904171
0.00104355
0.00120196
0.0013815
0.00158412
0.00181115
0.00206265
0.00233607
0.00262417
0.00291147
0.00316888
0.00334766
0.00338305
0.00324031
0.00298449
0.00266799
0.00234642
0.00204997
0.00178077
0.00150925
0.00112889
0.000217292
0.000257317
0.000303959
0.000357931
0.000420067
0.000491349
0.000572926
0.000666128
0.000772488
0.000893744
0.00103183
0.00118883
0.00136689
0.00156798
0.00179354
0.00204375
0.0023163
0.00260432
0.00289288
0.00315365
0.00333857
0.00338233
0.00324539
0.00299283
0.00267635
0.002353
0.0020543
0.00178326
0.00151062
0.00112956
0.000215732
0.000255505
0.000301866
0.000355524
0.000417311
0.000488205
0.000569348
0.000662067
0.000767892
0.000888557
0.001026
0.0011823
0.00135961
0.00155994
0.00178476
0.00203431
0.00230641
0.00259436
0.0028835
0.00314588
0.00333379
0.00338168
0.00324767
0.00299679
0.00268037
0.00235615
0.00205633
0.00178439
0.00151119
0.00112981
0.000215732
0.000255505
0.000301866
0.000355524
0.000417311
0.000488205
0.000569348
0.000662067
0.000767892
0.000888557
0.001026
0.0011823
0.00135961
0.00155994
0.00178476
0.00203431
0.00230641
0.00259436
0.0028835
0.00314588
0.00333379
0.00338168
0.00324767
0.00299679
0.00268037
0.00235615
0.00205633
0.00178439
0.00151119
0.00112981
0.000217292
0.000257317
0.000303959
0.000357931
0.000420067
0.000491349
0.000572926
0.000666128
0.000772488
0.000893744
0.00103183
0.00118883
0.00136689
0.00156798
0.00179354
0.00204375
0.0023163
0.00260432
0.00289288
0.00315365
0.00333857
0.00338233
0.00324539
0.00299283
0.00267635
0.002353
0.0020543
0.00178326
0.00151062
0.00112956
0.000220443
0.000260975
0.000308183
0.000362783
0.000425619
0.000497682
0.000580127
0.000674297
0.00078173
0.000904171
0.00104355
0.00120196
0.0013815
0.00158412
0.00181115
0.00206265
0.00233607
0.00262417
0.00291147
0.00316888
0.00334766
0.00338305
0.00324031
0.00298449
0.00266799
0.00234642
0.00204997
0.00178077
0.00150925
0.00112889
0.000225251
0.000266551
0.000314614
0.000370163
0.000434056
0.000507294
0.000591049
0.000686674
0.000795722
0.000919944
0.00106128
0.00122178
0.00140355
0.00160843
0.00183765
0.00209103
0.00236566
0.00265372
0.00293888
0.00319091
0.00336006
0.00338263
0.00323132
0.00297089
0.0026546
0.00233586
0.00204286
0.00177645
0.00150665
0.00112744
0.000231817
0.000274157
0.000323374
0.000380204
0.000445517
0.000520335
0.000605846
0.000703422
0.000814631
0.000941235
0.00108517
0.00124848
0.00143319
0.00164107
0.00187314
0.0021289
0.00240494
0.00269263
0.00297445
0.00321864
0.00337416
0.00337918
0.00321673
0.0029507
0.00263514
0.00232044
0.00203216
0.00176953
0.00150212
0.00112464
0.000240287
0.000283955
0.000334645
0.000393101
0.000460215
0.000537028
0.000624752
0.000724781
0.000838704
0.000968291
0.00111547
0.00128227
0.00147064
0.00168218
0.00191769
0.00217622
0.00245366
0.00274033
0.00301716
0.0032504
0.0033876
0.00337001
0.00319419
0.00292211
0.00260816
0.00229892
0.00201673
0.00175892
0.00149462
0.00111967
0.000250858
0.000296177
0.000348685
0.000409142
0.00047846
0.000557707
0.000648121
0.000751121
0.000868317
0.00100149
0.00115256
0.00132351
0.00151618
0.001732
0.00197139
0.00223287
0.00251142
0.00279598
0.00306549
0.00328379
0.00339711
0.00335159
0.00316073
0.00288282
0.00257187
0.00226974
0.0019951
0.00174319
0.00148281
0.0011114
0.000263801
0.000311148
0.000365866
0.00042874
0.000500712
0.000582878
0.000676502
0.000783031
0.000904091
0.00104147
0.00119706
0.00137278
0.00157034
0.0017909
0.00203445
0.00229876
0.00257766
0.00285836
0.00311734
0.00331562
0.00339853
0.00331978
0.00311305
0.00283043
0.00252433
0.00223119
0.00196559
0.00172067
0.00146511
0.00109853
0.000279517
0.000329356
0.000386724
0.000452501
0.000527661
0.00061333
0.000710801
0.000821542
0.000947187
0.00108951
0.00125037
0.00143156
0.00163459
0.00186028
0.00210802
0.00237466
0.00265258
0.00292684
0.00317101
0.00334298
0.00338833
0.00327185
0.00304975
0.00276454
0.00246558
0.00218331
0.00192809
0.00169108
0.00144116
0.00108074
0.000299168
0.00035169
0.000412201
0.000481489
0.000560539
0.000650513
0.000752743
0.000868736
0.00100015
0.00114875
0.00131633
0.00150458
0.00171473
0.00194715
0.00220049
0.00247041
0.00274754
0.00301442
0.00324144
0.00338403
0.00339103
0.0032471
0.00300916
0.00272186
0.00242916
0.00215631
0.00190999
0.00167957
0.00143383
0.00107684
0.000298868
0.000351372
0.000411824
0.000481035
0.000560001
0.000649888
0.000752031
0.000867936
0.000999262
0.00114778
0.00131528
0.00150344
0.0017135
0.0019458
0.00219899
0.00246872
0.00274557
0.00301206
0.00323857
0.0033805
0.00338681
0.00324241
0.00300425
0.00271701
0.00242455
0.00215202
0.00190604
0.00167594
0.00143058
0.00107426
0.000279385
0.000329185
0.000386518
0.000452255
0.000527373
0.000612999
0.000710426
0.00082112
0.000946713
0.00108898
0.00124976
0.00143086
0.00163378
0.00185933
0.00210692
0.0023734
0.00265117
0.00292532
0.00316947
0.00334158
0.00338725
0.00327113
0.00304922
0.00276412
0.0024652
0.00218293
0.00192771
0.00169073
0.00144085
0.00108052
0.000263693
0.000311022
0.000365713
0.000428554
0.000500486
0.000582603
0.000676171
0.000782634
0.000903614
0.0010409
0.00119638
0.00137197
0.00156939
0.0017898
0.0020332
0.00229736
0.00257616
0.00285682
0.0031159
0.00331446
0.00339786
0.00331968
0.00311326
0.00283077
0.00252466
0.00223144
0.00196575
0.00172076
0.00146518
0.00109859
0.000250767
0.000296073
0.00034856
0.000408987
0.000478266
0.000557464
0.000647818
0.000750749
0.000867862
0.00100094
0.00115191
0.00132273
0.00151528
0.00173096
0.00197023
0.00223159
0.00251006
0.00279459
0.00306419
0.00328275
0.00339652
0.00335156
0.00316101
0.00288324
0.00257227
0.00227005
0.00199529
0.00174329
0.00148287
0.00111143
0.000240209
0.000283868
0.000334541
0.000392972
0.000460052
0.000536822
0.000624493
0.000724462
0.000838313
0.00096782
0.00111491
0.00128161
0.00146987
0.00168131
0.00191671
0.00217514
0.00245252
0.00273916
0.00301605
0.00324949
0.00338705
0.00336991
0.00319438
0.00292244
0.00260849
0.00229916
0.00201687
0.00175898
0.00149463
0.00111965
0.00023175
0.000274084
0.000323289
0.0003801
0.000445387
0.000520171
0.000605641
0.00070317
0.000814324
0.000940866
0.00108473
0.00124796
0.00143259
0.00164039
0.00187237
0.00212806
0.00240403
0.00269169
0.00297355
0.00321788
0.00337366
0.00337903
0.00321682
0.00295092
0.00263536
0.0023206
0.00203224
0.00176954
0.00150209
0.0011246
0.000225193
0.000266491
0.000314547
0.000370083
0.000433957
0.000507173
0.000590899
0.00068649
0.000795498
0.000919676
0.00106096
0.00122141
0.00140311
0.00160793
0.00183709
0.00209041
0.00236499
0.00265302
0.00293819
0.00319031
0.00335963
0.00338246
0.00323133
0.00297101
0.00265473
0.00233595
0.00204289
0.00177643
0.00150661
0.00112739
0.000220393
0.000260926
0.000308131
0.000362723
0.000425549
0.000497597
0.000580023
0.00067417
0.000781577
0.000903987
0.00104334
0.0012017
0.0013812
0.00158377
0.00181076
0.00206221
0.00233559
0.00262367
0.00291096
0.00316842
0.00334731
0.00338287
0.00324027
0.00298453
0.00266805
0.00234646
0.00204997
0.00178074
0.0015092
0.00112883
0.000217246
0.000257274
0.000303917
0.000357886
0.000420016
0.00049129
0.000572855
0.000666043
0.000772385
0.000893621
0.00103168
0.00118866
0.00136669
0.00156775
0.00179327
0.00204344
0.00231597
0.00260396
0.00289251
0.0031533
0.00333829
0.00338217
0.00324532
0.00299283
0.00267637
0.002353
0.00205428
0.00178322
0.00151056
0.00112951
0.000215689
0.000255466
0.000301829
0.000355487
0.000417271
0.00048816
0.000569295
0.000662004
0.000767815
0.000888465
0.00102589
0.00118217
0.00135946
0.00155976
0.00178455
0.00203407
0.00230614
0.00259407
0.0028832
0.00314559
0.00333355
0.00338152
0.00324758
0.00299676
0.00268036
0.00235614
0.00205631
0.00178435
0.00151114
0.00112976
0.000215689
0.000255466
0.000301829
0.000355487
0.000417271
0.00048816
0.000569295
0.000662004
0.000767815
0.000888465
0.00102589
0.00118217
0.00135946
0.00155976
0.00178455
0.00203407
0.00230614
0.00259407
0.0028832
0.00314559
0.00333355
0.00338152
0.00324758
0.00299676
0.00268036
0.00235614
0.00205631
0.00178435
0.00151114
0.00112976
0.000217246
0.000257274
0.000303917
0.000357886
0.000420016
0.00049129
0.000572855
0.000666043
0.000772385
0.000893621
0.00103168
0.00118866
0.00136669
0.00156775
0.00179327
0.00204344
0.00231597
0.00260396
0.00289251
0.0031533
0.00333829
0.00338217
0.00324532
0.00299283
0.00267637
0.002353
0.00205428
0.00178322
0.00151056
0.00112951
0.000220393
0.000260926
0.000308131
0.000362723
0.000425549
0.000497597
0.000580023
0.00067417
0.000781577
0.000903987
0.00104334
0.0012017
0.0013812
0.00158377
0.00181076
0.00206221
0.00233559
0.00262367
0.00291096
0.00316842
0.00334731
0.00338287
0.00324027
0.00298453
0.00266805
0.00234646
0.00204997
0.00178074
0.0015092
0.00112883
0.000225193
0.000266491
0.000314547
0.000370083
0.000433957
0.000507173
0.000590899
0.00068649
0.000795498
0.000919676
0.00106096
0.00122141
0.00140311
0.00160793
0.00183709
0.00209041
0.00236499
0.00265302
0.00293819
0.00319031
0.00335963
0.00338246
0.00323133
0.00297101
0.00265473
0.00233595
0.00204289
0.00177643
0.00150661
0.00112739
0.00023175
0.000274084
0.000323289
0.0003801
0.000445387
0.000520171
0.000605641
0.00070317
0.000814324
0.000940866
0.00108473
0.00124796
0.00143259
0.00164039
0.00187237
0.00212806
0.00240403
0.00269169
0.00297355
0.00321788
0.00337366
0.00337903
0.00321682
0.00295092
0.00263536
0.0023206
0.00203224
0.00176954
0.00150209
0.0011246
0.000240209
0.000283868
0.000334541
0.000392972
0.000460052
0.000536822
0.000624493
0.000724462
0.000838313
0.000967821
0.00111491
0.00128161
0.00146987
0.00168131
0.00191671
0.00217514
0.00245252
0.00273916
0.00301605
0.00324949
0.00338705
0.00336991
0.00319438
0.00292244
0.00260849
0.00229916
0.00201687
0.00175898
0.00149463
0.00111965
0.000250767
0.000296073
0.00034856
0.000408987
0.000478266
0.000557464
0.000647818
0.000750749
0.000867862
0.00100094
0.00115191
0.00132273
0.00151528
0.00173096
0.00197023
0.00223159
0.00251006
0.00279459
0.00306419
0.00328275
0.00339652
0.00335156
0.00316101
0.00288324
0.00257227
0.00227005
0.00199529
0.00174329
0.00148287
0.00111143
0.000263693
0.000311022
0.000365713
0.000428554
0.000500486
0.000582603
0.000676171
0.000782634
0.000903614
0.0010409
0.00119638
0.00137197
0.00156939
0.0017898
0.0020332
0.00229736
0.00257616
0.00285682
0.0031159
0.00331446
0.00339786
0.00331968
0.00311326
0.00283077
0.00252466
0.00223144
0.00196575
0.00172076
0.00146518
0.00109859
0.000279385
0.000329185
0.000386518
0.000452255
0.000527373
0.000612999
0.000710426
0.00082112
0.000946713
0.00108898
0.00124976
0.00143086
0.00163378
0.00185933
0.00210692
0.0023734
0.00265117
0.00292532
0.00316947
0.00334158
0.00338725
0.00327113
0.00304922
0.00276412
0.0024652
0.00218293
0.00192771
0.00169073
0.00144085
0.00108052
0.000298868
0.000351372
0.000411824
0.000481035
0.000560001
0.000649888
0.000752031
0.000867936
0.000999262
0.00114778
0.00131528
0.00150344
0.0017135
0.0019458
0.00219899
0.00246872
0.00274557
0.00301206
0.00323857
0.0033805
0.00338681
0.00324241
0.00300425
0.00271701
0.00242455
0.00215202
0.00190604
0.00167594
0.00143058
0.00107426
0.000299168
0.00035169
0.000412201
0.000481489
0.000560539
0.000650513
0.000752743
0.000868736
0.00100015
0.00114875
0.00131633
0.00150458
0.00171473
0.00194715
0.00220049
0.00247041
0.00274754
0.00301442
0.00324144
0.00338403
0.00339103
0.0032471
0.00300916
0.00272186
0.00242916
0.00215631
0.00190999
0.00167957
0.00143383
0.00107684
0.000279517
0.000329356
0.000386724
0.000452501
0.000527661
0.00061333
0.000710801
0.000821542
0.000947187
0.00108951
0.00125037
0.00143156
0.00163459
0.00186028
0.00210802
0.00237466
0.00265258
0.00292684
0.00317101
0.00334298
0.00338833
0.00327185
0.00304975
0.00276454
0.00246558
0.00218331
0.00192809
0.00169108
0.00144116
0.00108074
0.000263801
0.000311148
0.000365866
0.00042874
0.000500712
0.000582878
0.000676502
0.000783031
0.000904091
0.00104147
0.00119706
0.00137278
0.00157034
0.0017909
0.00203445
0.00229876
0.00257766
0.00285836
0.00311734
0.00331562
0.00339853
0.00331978
0.00311305
0.00283043
0.00252433
0.00223119
0.00196559
0.00172067
0.00146511
0.00109853
0.000250858
0.000296177
0.000348685
0.000409142
0.00047846
0.000557707
0.000648121
0.000751121
0.000868317
0.00100149
0.00115256
0.00132351
0.00151618
0.001732
0.00197139
0.00223287
0.00251142
0.00279598
0.00306549
0.00328379
0.00339711
0.00335159
0.00316073
0.00288282
0.00257187
0.00226974
0.0019951
0.00174319
0.00148281
0.0011114
0.000240287
0.000283955
0.000334645
0.000393101
0.000460215
0.000537028
0.000624752
0.000724781
0.000838704
0.000968291
0.00111547
0.00128227
0.00147064
0.00168218
0.00191769
0.00217622
0.00245366
0.00274033
0.00301716
0.0032504
0.0033876
0.00337001
0.00319419
0.00292211
0.00260816
0.00229892
0.00201673
0.00175892
0.00149462
0.00111967
0.000231817
0.000274157
0.000323374
0.000380204
0.000445517
0.000520335
0.000605846
0.000703422
0.000814631
0.000941235
0.00108517
0.00124848
0.00143319
0.00164107
0.00187314
0.0021289
0.00240494
0.00269263
0.00297445
0.00321864
0.00337416
0.00337918
0.00321673
0.0029507
0.00263514
0.00232044
0.00203216
0.00176953
0.00150212
0.00112464
0.000225251
0.000266551
0.000314614
0.000370163
0.000434056
0.000507294
0.000591049
0.000686675
0.000795722
0.000919944
0.00106128
0.00122178
0.00140355
0.00160843
0.00183765
0.00209103
0.00236566
0.00265372
0.00293888
0.00319091
0.00336006
0.00338263
0.00323132
0.00297089
0.0026546
0.00233586
0.00204286
0.00177645
0.00150665
0.00112744
0.000220443
0.000260975
0.000308183
0.000362783
0.000425619
0.000497682
0.000580127
0.000674297
0.00078173
0.000904171
0.00104355
0.00120196
0.0013815
0.00158412
0.00181115
0.00206265
0.00233607
0.00262417
0.00291147
0.00316888
0.00334766
0.00338305
0.00324031
0.00298449
0.00266799
0.00234642
0.00204997
0.00178077
0.00150925
0.00112889
0.000217292
0.000257317
0.000303959
0.000357931
0.000420067
0.000491349
0.000572926
0.000666128
0.000772488
0.000893744
0.00103183
0.00118883
0.00136689
0.00156798
0.00179354
0.00204375
0.0023163
0.00260432
0.00289288
0.00315365
0.00333857
0.00338233
0.00324539
0.00299283
0.00267635
0.002353
0.0020543
0.00178326
0.00151062
0.00112956
0.000215732
0.000255505
0.000301866
0.000355524
0.000417311
0.000488205
0.000569348
0.000662067
0.000767892
0.000888557
0.001026
0.0011823
0.00135961
0.00155994
0.00178476
0.00203431
0.00230641
0.00259436
0.0028835
0.00314588
0.00333379
0.00338168
0.00324767
0.00299679
0.00268037
0.00235615
0.00205633
0.00178439
0.00151119
0.00112981
0.000215732
0.000255505
0.000301866
0.000355524
0.000417311
0.000488205
0.000569348
0.000662067
0.000767892
0.000888557
0.001026
0.0011823
0.00135961
0.00155994
0.00178476
0.00203431
0.00230641
0.00259436
0.0028835
0.00314588
0.00333379
0.00338168
0.00324767
0.00299679
0.00268037
0.00235615
0.00205633
0.00178439
0.00151119
0.00112981
0.000217292
0.000257317
0.000303959
0.000357931
0.000420067
0.000491349
0.000572926
0.000666128
0.000772488
0.000893744
0.00103183
0.00118883
0.00136689
0.00156798
0.00179354
0.00204375
0.0023163
0.00260432
0.00289288
0.00315365
0.00333857
0.00338233
0.00324539
0.00299283
0.00267635
0.002353
0.0020543
0.00178326
0.00151062
0.00112956
0.000220443
0.000260975
0.000308183
0.000362783
0.000425619
0.000497682
0.000580127
0.000674297
0.00078173
0.000904171
0.00104355