/*--------------------------------*- C++ -*----------------------------------*\
| =========                 |                                                 |
| \\      /  F ield         | OpenFOAM: The Open Source CFD Toolbox           |
|  \\    /   O peration     | Version:  2306                                  |
|   \\  /    A nd           | Website:  www.openfoam.com                      |
|    \\/     M anipulation  |                                                 |
\*---------------------------------------------------------------------------*/
FoamFile
{
    version     2.0;
    format      ascii;
    arch        "LSB;label=32;scalar=64";
    class       volScalarField;
    location    "12336";
    object      f;
}
// * * * * * * * * * * * * * * * * * * * * * * * * * * * * * * * * * * * * * //

dimensions      [0 0 -1 0 0 0 0];

internalField   nonuniform List<scalar> 
2800
(
0.0338881
0.0336349
0.0333987
0.0331894
0.0330094
0.0328595
0.0327399
0.0326504
0.0325909
0.0325612
0.0325612
0.0325909
0.0326504
0.0327399
0.0328595
0.0330094
0.0331894
0.0333987
0.0336349
0.0338881
0.0336338
0.0333026
0.0330136
0.0327619
0.0325473
0.0323695
0.0322282
0.0321229
0.032053
0.0320181
0.0320181
0.032053
0.0321229
0.0322282
0.0323695
0.0325473
0.0327619
0.0330136
0.0333026
0.0336338
0.0333971
0.0330129
0.0326779
0.0323898
0.0321464
0.0319463
0.0317881
0.0316706
0.0315928
0.0315542
0.0315542
0.0315928
0.0316706
0.0317881
0.0319463
0.0321464
0.0323898
0.0326779
0.0330129
0.0333971
0.0331876
0.0327609
0.0323893
0.0320716
0.0318053
0.0315876
0.0314165
0.0312899
0.0312065
0.031165
0.031165
0.0312065
0.0312899
0.0314165
0.0315876
0.0318053
0.0320716
0.0323893
0.0327609
0.0331876
0.0330076
0.032546
0.0321457
0.0318049
0.0315208
0.0312899
0.0311092
0.030976
0.0308885
0.030845
0.030845
0.0308885
0.030976
0.0311092
0.0312899
0.0315208
0.0318049
0.0321457
0.032546
0.0330076
0.0328578
0.0323682
0.0319454
0.0315871
0.0312896
0.031049
0.0308614
0.0307237
0.0306333
0.0305886
0.0305886
0.0306333
0.0307237
0.0308614
0.031049
0.0312896
0.0315871
0.0319454
0.0323682
0.0328578
0.0327382
0.0322269
0.0317871
0.0314158
0.0311088
0.0308613
0.030669
0.0305281
0.0304359
0.0303902
0.0303902
0.0304359
0.0305281
0.030669
0.0308613
0.0311088
0.0314158
0.0317871
0.0322269
0.0327382
0.0326488
0.0321216
0.0316696
0.0312892
0.0309756
0.0307234
0.030528
0.0303851
0.0302917
0.0302455
0.0302455
0.0302917
0.0303851
0.030528
0.0307234
0.0309756
0.0312892
0.0316696
0.0321216
0.0326488
0.0325894
0.0320517
0.0315918
0.0312057
0.0308879
0.030633
0.0304357
0.0302916
0.0301975
0.030151
0.030151
0.0301975
0.0302916
0.0304357
0.030633
0.0308879
0.0312057
0.0315918
0.0320517
0.0325894
0.0325597
0.0320168
0.0315531
0.0311642
0.0308445
0.0305882
0.03039
0.0302454
0.030151
0.0301044
0.0301044
0.030151
0.0302454
0.03039
0.0305882
0.0308445
0.0311642
0.0315531
0.0320168
0.0325597
0.0325597
0.0320168
0.0315531
0.0311642
0.0308445
0.0305882
0.03039
0.0302454
0.030151
0.0301044
0.0301044
0.030151
0.0302454
0.03039
0.0305882
0.0308445
0.0311642
0.0315531
0.0320168
0.0325597
0.0325894
0.0320517
0.0315918
0.0312057
0.0308879
0.030633
0.0304357
0.0302916
0.0301975
0.030151
0.030151
0.0301975
0.0302916
0.0304357
0.030633
0.0308879
0.0312057
0.0315918
0.0320517
0.0325894
0.0326488
0.0321216
0.0316696
0.0312892
0.0309756
0.0307234
0.030528
0.0303851
0.0302917
0.0302455
0.0302455
0.0302917
0.0303851
0.030528
0.0307234
0.0309756
0.0312892
0.0316696
0.0321216
0.0326488
0.0327382
0.0322269
0.0317871
0.0314158
0.0311088
0.0308613
0.030669
0.0305281
0.0304359
0.0303902
0.0303902
0.0304359
0.0305281
0.030669
0.0308613
0.0311088
0.0314158
0.0317871
0.0322269
0.0327382
0.0328578
0.0323682
0.0319454
0.0315871
0.0312896
0.031049
0.0308614
0.0307237
0.0306333
0.0305886
0.0305886
0.0306333
0.0307237
0.0308614
0.031049
0.0312896
0.0315871
0.0319454
0.0323682
0.0328578
0.0330076
0.032546
0.0321457
0.0318049
0.0315208
0.0312899
0.0311092
0.030976
0.0308885
0.030845
0.030845
0.0308885
0.030976
0.0311092
0.0312899
0.0315208
0.0318049
0.0321457
0.032546
0.0330076
0.0331876
0.0327609
0.0323893
0.0320716
0.0318053
0.0315876
0.0314165
0.0312899
0.0312065
0.031165
0.031165
0.0312065
0.0312899
0.0314165
0.0315876
0.0318053
0.0320716
0.0323893
0.0327609
0.0331876
0.0333971
0.0330129
0.0326779
0.0323898
0.0321464
0.0319463
0.0317881
0.0316706
0.0315928
0.0315542
0.0315542
0.0315928
0.0316706
0.0317881
0.0319463
0.0321464
0.0323898
0.0326779
0.0330129
0.0333971
0.0336338
0.0333026
0.0330136
0.0327619
0.0325473
0.0323695
0.0322282
0.0321229
0.032053
0.0320181
0.0320181
0.032053
0.0321229
0.0322282
0.0323695
0.0325473
0.0327619
0.0330136
0.0333026
0.0336338
0.0338881
0.0336349
0.0333987
0.0331894
0.0330094
0.0328595
0.0327399
0.0326504
0.0325909
0.0325612
0.0325612
0.0325909
0.0326504
0.0327399
0.0328595
0.0330094
0.0331894
0.0333987
0.0336349
0.0338881
0.0343477
0.0349216
0.0354558
0.0359329
0.0363363
0.0366512
0.0368641
0.0369631
0.036937
0.0367758
0.0364701
0.0360109
0.0353892
0.0345959
0.0336212
0.0324548
0.0310852
0.0294999
0.0276848
0.0256258
0.0233136
0.0207618
0.0180386
0.0152645
0.0125379
0.00992446
0.00746141
0.00516356
0.00302928
0.00103937
0.0341125
0.0347007
0.0352545
0.0357567
0.0361904
0.0365402
0.0367922
0.0369335
0.0369528
0.0368393
0.0365833
0.0361753
0.0356061
0.0348661
0.0339454
0.0328332
0.0315174
0.0299848
0.0282201
0.0262072
0.0239319
0.0213965
0.0186508
0.015821
0.0130175
0.0103162
0.00776196
0.00537431
0.00315402
0.00108243
0.0339043
0.0345011
0.0350698
0.0355922
0.0360513
0.036431
0.036717
0.0368959
0.0369557
0.0368854
0.0366745
0.0363132
0.0357917
0.0351002
0.034228
0.0331639
0.0318954
0.0304084
0.028687
0.0267137
0.0244717
0.0219564
0.0192062
0.0163361
0.0134671
0.0106866
0.00804783
0.00557574
0.00327385
0.00112421
0.0337205
0.0343236
0.0349038
0.0354426
0.0359228
0.0363279
0.036643
0.0368544
0.0369494
0.0369166
0.036745
0.0364245
0.0359447
0.0352954
0.0344657
0.0334438
0.0322169
0.0307703
0.0290876
0.0271503
0.0249393
0.0224447
0.0196943
0.0167917
0.0138665
0.0110165
0.00830272
0.00575536
0.00338063
0.00116134
0.0335621
0.0341695
0.0347584
0.0353104
0.0358077
0.0362337
0.0365731
0.0368115
0.0369361
0.0369349
0.0367966
0.0365105
0.0360661
0.0354528
0.0346594
0.0336739
0.0324829
0.0310715
0.0294226
0.0275168
0.0253335
0.0228585
0.0201106
0.0171823
0.0142102
0.0113009
0.00852263
0.00591033
0.00347268
0.00119325
0.0334297
0.0340399
0.0346353
0.0351974
0.0357083
0.036151
0.0365098
0.0367702
0.0369189
0.0369434
0.0368323
0.0365746
0.0361595
0.035576
0.0348128
0.0338577
0.0326968
0.031315
0.0296947
0.0278158
0.0256563
0.0231988
0.0204547
0.0175067
0.0144964
0.0115382
0.00870629
0.00603974
0.00354949
0.00121982
0.0333237
0.0339355
0.0345356
0.0351052
0.0356264
0.0360819
0.0364557
0.0367332
0.0369006
0.0369454
0.0368558
0.0366205
0.0362286
0.035669
0.03493
0.0339992
0.0328626
0.0315047
0.0299075
0.0280505
0.0259105
0.0234677
0.0207278
0.0177651
0.014725
0.0117279
0.00885324
0.00614329
0.00361092
0.00124103
0.0332442
0.0338569
0.0344601
0.035035
0.0355635
0.0360283
0.0364131
0.0367031
0.0368843
0.0369441
0.0368703
0.0366518
0.0362772
0.0357354
0.0350145
0.034102
0.0329837
0.0316439
0.0300642
0.0282237
0.0260986
0.0236673
0.0209312
0.017958
0.014896
0.0118701
0.00896339
0.00622091
0.00365695
0.00125689
0.0331912
0.0338043
0.0344094
0.0349877
0.0355209
0.0359917
0.0363837
0.0366818
0.0368721
0.0369417
0.0368786
0.0366711
0.036308
0.035778
0.0350692
0.0341689
0.0330629
0.0317352
0.0301673
0.0283379
0.0262228
0.0237994
0.0210661
0.0180862
0.0150098
0.0119647
0.00903678
0.00627263
0.00368761
0.00126745
0.0331647
0.0337779
0.0343839
0.0349639
0.0354994
0.0359731
0.0363686
0.0366708
0.0368657
0.0369402
0.0368822
0.0366802
0.0363229
0.0357988
0.0350961
0.034202
0.0331021
0.0317804
0.0302184
0.0283946
0.0262846
0.0238651
0.0211333
0.0181501
0.0150666
0.012012
0.00907345
0.00629847
0.00370293
0.00127273
0.0331647
0.0337779
0.0343839
0.0349639
0.0354994
0.0359731
0.0363686
0.0366708
0.0368657
0.0369402
0.0368822
0.0366802
0.0363229
0.0357988
0.0350961
0.034202
0.0331021
0.0317804
0.0302184
0.0283946
0.0262846
0.0238651
0.0211333
0.0181501
0.0150666
0.012012
0.00907345
0.00629847
0.00370293
0.00127273
0.0331912
0.0338043
0.0344094
0.0349877
0.0355209
0.0359917
0.0363837
0.0366818
0.0368721
0.0369417
0.0368786
0.0366711
0.036308
0.035778
0.0350692
0.0341689
0.0330629
0.0317352
0.0301673
0.0283379
0.0262228
0.0237994
0.0210661
0.0180862
0.0150098
0.0119647
0.00903678
0.00627263
0.00368761
0.00126745
0.0332442
0.0338569
0.0344601
0.035035
0.0355635
0.0360283
0.0364131
0.0367031
0.0368843
0.0369441
0.0368703
0.0366518
0.0362772
0.0357354
0.0350145
0.034102
0.0329837
0.0316439
0.0300642
0.0282237
0.0260986
0.0236673
0.0209312
0.017958
0.014896
0.0118701
0.00896339
0.00622091
0.00365695
0.00125689
0.0333237
0.0339355
0.0345356
0.0351052
0.0356264
0.0360819
0.0364557
0.0367332
0.0369006
0.0369454
0.0368558
0.0366205
0.0362286
0.035669
0.03493
0.0339992
0.0328626
0.0315047
0.0299075
0.0280505
0.0259105
0.0234677
0.0207279
0.0177651
0.014725
0.0117279
0.00885324
0.00614329
0.00361092
0.00124103
0.0334297
0.0340399
0.0346353
0.0351974
0.0357083
0.036151
0.0365098
0.0367702
0.0369189
0.0369434
0.0368323
0.0365746
0.0361595
0.035576
0.0348128
0.0338577
0.0326968
0.031315
0.0296947
0.0278158
0.0256563
0.0231988
0.0204547
0.0175067
0.0144964
0.0115382
0.00870629
0.00603974
0.00354949
0.00121982
0.0335621
0.0341695
0.0347584
0.0353104
0.0358077
0.0362337
0.0365731
0.0368115
0.0369361
0.0369349
0.0367966
0.0365105
0.0360661
0.0354528
0.0346594
0.0336739
0.0324829
0.0310715
0.0294226
0.0275168
0.0253335
0.0228585
0.0201106
0.0171823
0.0142102
0.0113009
0.00852263
0.00591033
0.00347268
0.00119325
0.0337205
0.0343236
0.0349038
0.0354426
0.0359228
0.0363279
0.036643
0.0368544
0.0369494
0.0369166
0.036745
0.0364245
0.0359447
0.0352954
0.0344657
0.0334438
0.0322169
0.0307703
0.0290876
0.0271503
0.0249393
0.0224447
0.0196943
0.0167917
0.0138665
0.0110165
0.00830272
0.00575536
0.00338063
0.00116134
0.0339043
0.0345011
0.0350698
0.0355922
0.0360513
0.036431
0.036717
0.0368959
0.0369557
0.0368854
0.0366745
0.0363132
0.0357917
0.0351002
0.034228
0.0331639
0.0318954
0.0304084
0.028687
0.0267137
0.0244717
0.0219564
0.0192062
0.0163361
0.0134671
0.0106866
0.00804783
0.00557574
0.00327385
0.00112421
0.0341125
0.0347007
0.0352545
0.0357567
0.0361904
0.0365402
0.0367922
0.0369335
0.0369528
0.0368393
0.0365833
0.0361753
0.0356061
0.0348661
0.0339454
0.0328332
0.0315174
0.0299848
0.0282201
0.0262072
0.0239319
0.0213965
0.0186508
0.015821
0.0130175
0.0103162
0.00776196
0.00537431
0.00315402
0.00108243
0.0343478
0.0349216
0.0354558
0.0359329
0.0363363
0.0366512
0.0368641
0.0369631
0.036937
0.0367758
0.0364701
0.0360109
0.0353892
0.0345959
0.0336212
0.0324548
0.0310852
0.0294999
0.0276849
0.0256259
0.0233136
0.0207618
0.0180386
0.0152645
0.0125379
0.00992446
0.00746141
0.00516356
0.00302928
0.00103937
0.0343503
0.0349231
0.035457
0.035934
0.0363374
0.0366524
0.0368656
0.0369648
0.0369391
0.0367785
0.0364736
0.0360152
0.0353946
0.0346024
0.033629
0.0324639
0.0310958
0.0295119
0.0276982
0.0256404
0.0233291
0.0207778
0.0180544
0.0152792
0.012551
0.00993565
0.00747034
0.00517008
0.0030333
0.00104084
0.0341147
0.0347028
0.0352566
0.0357587
0.0361925
0.0365424
0.0367944
0.0369359
0.0369553
0.0368419
0.0365861
0.0361782
0.0356091
0.0348693
0.0339486
0.0328364
0.0315205
0.0299875
0.0282225
0.026209
0.023933
0.0213969
0.0186506
0.0158206
0.0130169
0.0103156
0.00776146
0.00537393
0.00315377
0.00108232
0.0339069
0.0345038
0.0350724
0.0355949
0.036054
0.0364338
0.0367198
0.0368987
0.0369584
0.036888
0.0366769
0.0363154
0.0357937
0.0351018
0.0342292
0.0331646
0.0318954
0.0304077
0.0286856
0.0267115
0.0244686
0.0219526
0.0192018
0.0163317
0.0134631
0.0106832
0.00804515
0.00557381
0.00327268
0.00112378
0.0337231
0.0343264
0.0349066
0.0354456
0.0359258
0.0363309
0.036646
0.0368572
0.0369521
0.036919
0.0367472
0.0364263
0.0359461
0.0352962
0.0344659
0.0334435
0.0322158
0.0307685
0.029085
0.0271468
0.024935
0.0224397
0.0196889
0.0167864
0.0138617
0.0110124
0.00829955
0.0057531
0.00337927
0.00116085
0.0335647
0.0341722
0.0347613
0.0353133
0.0358107
0.0362366
0.0365759
0.0368142
0.0369386
0.0369371
0.0367985
0.036512
0.0360672
0.0354534
0.0346594
0.0336732
0.0324816
0.0310695
0.0294199
0.0275134
0.0253294
0.0228538
0.0201055
0.0171774
0.0142057
0.0112971
0.00851968
0.00590823
0.00347142
0.0011928
0.0334321
0.0340424
0.034638
0.0352001
0.035711
0.0361536
0.0365123
0.0367726
0.036921
0.0369453
0.036834
0.0365759
0.0361604
0.0355765
0.0348128
0.0338572
0.0326958
0.0313134
0.0296926
0.0278131
0.025653
0.023195
0.0204507
0.0175027
0.0144928
0.0115351
0.00870389
0.00603803
0.00354847
0.00121945
0.0333259
0.0339378
0.034538
0.0351076
0.0356287
0.0360841
0.0364579
0.0367352
0.0369025
0.0369471
0.0368572
0.0366217
0.0362295
0.0356695
0.0349302
0.033999
0.032862
0.0315037
0.0299061
0.0280486
0.0259082
0.0234651
0.020725
0.0177622
0.0147223
0.0117257
0.00885151
0.00614205
0.00361018
0.00124076
0.0332462
0.033859
0.0344622
0.0350371
0.0355655
0.0360302
0.036415
0.0367048
0.0368859
0.0369455
0.0368716
0.0366529
0.0362781
0.035736
0.0350149
0.0341022
0.0329836
0.0316435
0.0300636
0.0282227
0.0260973
0.0236657
0.0209294
0.0179562
0.0148943
0.0118687
0.00896228
0.00622011
0.00365647
0.00125672
0.0331931
0.0338062
0.0344113
0.0349895
0.0355227
0.0359934
0.0363853
0.0366833
0.0368735
0.036943
0.0368797
0.0366721
0.0363089
0.0357788
0.0350699
0.0341694
0.0330632
0.0317353
0.0301672
0.0283376
0.0262223
0.0237986
0.0210651
0.0180852
0.0150088
0.0119639
0.00903613
0.00627216
0.00368733
0.00126735
0.0331665
0.0337798
0.0343857
0.0349656
0.035501
0.0359747
0.0363701
0.0366722
0.036867
0.0369414
0.0368833
0.0366813
0.0363238
0.0357997
0.0350969
0.0342026
0.0331026
0.0317807
0.0302186
0.0283946
0.0262844
0.0238647
0.0211328
0.0181496
0.015066
0.0120116
0.00907306
0.00629818
0.00370275
0.00127266
0.0331665
0.0337798
0.0343857
0.0349656
0.035501
0.0359747
0.0363701
0.0366722
0.036867
0.0369414
0.0368833
0.0366813
0.0363238
0.0357997
0.0350969
0.0342026
0.0331026
0.0317807
0.0302186
0.0283946
0.0262844
0.0238647
0.0211328
0.0181496
0.015066
0.0120116
0.00907306
0.00629818
0.00370275
0.00127266
0.0331931
0.0338062
0.0344113
0.0349895
0.0355227
0.0359934
0.0363853
0.0366833
0.0368735
0.036943
0.0368797
0.0366721
0.0363089
0.0357788
0.0350699
0.0341694
0.0330632
0.0317353
0.0301672
0.0283376
0.0262223
0.0237986
0.0210651
0.0180852
0.0150088
0.0119639
0.00903613
0.00627216
0.00368733
0.00126735
0.0332462
0.033859
0.0344622
0.0350371
0.0355655
0.0360302
0.036415
0.0367048
0.0368859
0.0369455
0.0368716
0.0366529
0.0362781
0.035736
0.0350149
0.0341022
0.0329836
0.0316435
0.0300636
0.0282227
0.0260973
0.0236657
0.0209294
0.0179562
0.0148943
0.0118687
0.00896228
0.00622011
0.00365647
0.00125672
0.0333259
0.0339378
0.034538
0.0351076
0.0356287
0.0360841
0.0364579
0.0367352
0.0369025
0.0369471
0.0368572
0.0366217
0.0362295
0.0356695
0.0349302
0.033999
0.032862
0.0315037
0.0299061
0.0280486
0.0259082
0.0234651
0.020725
0.0177622
0.0147223
0.0117257
0.0088515
0.00614205
0.00361018
0.00124076
0.0334321
0.0340424
0.034638
0.0352001
0.035711
0.0361536
0.0365123
0.0367726
0.036921
0.0369453
0.036834
0.0365759
0.0361604
0.0355765
0.0348128
0.0338572
0.0326958
0.0313134
0.0296926
0.0278131
0.025653
0.023195
0.0204507
0.0175027
0.0144928
0.0115351
0.00870389
0.00603803
0.00354847
0.00121945
0.0335647
0.0341722
0.0347613
0.0353133
0.0358107
0.0362366
0.0365759
0.0368142
0.0369386
0.0369371
0.0367985
0.036512
0.0360672
0.0354534
0.0346594
0.0336732
0.0324816
0.0310695
0.0294199
0.0275134
0.0253294
0.0228538
0.0201055
0.0171774
0.0142057
0.0112971
0.00851968
0.00590823
0.00347142
0.0011928
0.0337231
0.0343264
0.0349066
0.0354456
0.0359258
0.0363309
0.0366459
0.0368572
0.0369521
0.036919
0.0367472
0.0364263
0.0359461
0.0352962
0.0344659
0.0334435
0.0322158
0.0307685
0.029085
0.0271468
0.024935
0.0224397
0.0196889
0.0167864
0.0138617
0.0110124
0.00829954
0.0057531
0.00337927
0.00116085
0.0339069
0.0345038
0.0350724
0.0355949
0.036054
0.0364338
0.0367198
0.0368987
0.0369584
0.036888
0.0366769
0.0363154
0.0357937
0.0351018
0.0342292
0.0331646
0.0318954
0.0304077
0.0286856
0.0267115
0.0244686
0.0219526
0.0192018
0.0163317
0.0134631
0.0106832
0.00804515
0.00557381
0.00327268
0.00112378
0.0341147
0.0347028
0.0352566
0.0357587
0.0361925
0.0365424
0.0367944
0.0369359
0.0369553
0.0368419
0.0365861
0.0361782
0.0356091
0.0348693
0.0339486
0.0328364
0.0315205
0.0299875
0.0282225
0.026209
0.023933
0.0213969
0.0186506
0.0158206
0.0130169
0.0103156
0.00776146
0.00537393
0.00315377
0.00108232
0.0343503
0.0349231
0.035457
0.035934
0.0363374
0.0366524
0.0368656
0.0369648
0.0369391
0.0367785
0.0364736
0.0360152
0.0353946
0.0346024
0.033629
0.0324639
0.0310958
0.0295119
0.0276982
0.0256404
0.0233291
0.0207778
0.0180544
0.0152792
0.012551
0.00993565
0.00747034
0.00517008
0.0030333
0.00104084
0.0343478
0.0349216
0.0354558
0.0359329
0.0363363
0.0366512
0.0368641
0.0369631
0.036937
0.0367758
0.0364701
0.0360109
0.0353892
0.0345959
0.0336212
0.0324548
0.0310852
0.0294999
0.0276848
0.0256258
0.0233136
0.0207618
0.0180386
0.0152645
0.0125379
0.00992446
0.00746141
0.00516356
0.00302928
0.00103937
0.0341125
0.0347007
0.0352545
0.0357567
0.0361904
0.0365402
0.0367922
0.0369335
0.0369528
0.0368393
0.0365833
0.0361753
0.0356061
0.0348661
0.0339454
0.0328332
0.0315174
0.0299848
0.0282201
0.0262072
0.0239319
0.0213965
0.0186508
0.015821
0.0130175
0.0103162
0.00776196
0.00537431
0.00315402
0.00108243
0.0339043
0.0345011
0.0350698
0.0355922
0.0360513
0.036431
0.036717
0.0368959
0.0369557
0.0368854
0.0366745
0.0363132
0.0357917
0.0351002
0.034228
0.0331639
0.0318954
0.0304084
0.028687
0.0267137
0.0244717
0.0219564
0.0192062
0.0163361
0.0134671
0.0106866
0.00804783
0.00557574
0.00327385
0.00112421
0.0337205
0.0343236
0.0349038
0.0354426
0.0359228
0.0363279
0.036643
0.0368544
0.0369494
0.0369166
0.036745
0.0364245
0.0359447
0.0352954
0.0344657
0.0334438
0.0322169
0.0307703
0.0290876
0.0271503
0.0249393
0.0224447
0.0196943
0.0167917
0.0138665
0.0110165
0.00830272
0.00575536
0.00338063
0.00116134
0.0335621
0.0341695
0.0347584
0.0353104
0.0358077
0.0362337
0.0365731
0.0368115
0.0369361
0.0369349
0.0367966
0.0365105
0.0360661
0.0354528
0.0346594
0.0336739
0.0324829
0.0310715
0.0294226
0.0275168
0.0253335
0.0228585
0.0201106
0.0171823
0.0142102
0.0113009
0.00852263
0.00591033
0.00347268
0.00119325
0.0334297
0.0340399
0.0346353
0.0351974
0.0357083
0.036151
0.0365098
0.0367702
0.0369189
0.0369434
0.0368323
0.0365746
0.0361595
0.035576
0.0348128
0.0338577
0.0326968
0.031315
0.0296947
0.0278158
0.0256563
0.0231988
0.0204547
0.0175067
0.0144964
0.0115382
0.00870629
0.00603974
0.00354949
0.00121982
0.0333237
0.0339355
0.0345356
0.0351052
0.0356264
0.0360819
0.0364557
0.0367332
0.0369006
0.0369454
0.0368558
0.0366205
0.0362286
0.035669
0.03493
0.0339992
0.0328626
0.0315047
0.0299075
0.0280505
0.0259105
0.0234677
0.0207278
0.0177651
0.014725
0.0117279
0.00885324
0.00614329
0.00361092
0.00124103
0.0332442
0.0338569
0.0344601
0.035035
0.0355635
0.0360283
0.0364131
0.0367031
0.0368843
0.0369441
0.0368703
0.0366518
0.0362772
0.0357354
0.0350145
0.034102
0.0329837
0.0316439
0.0300642
0.0282237
0.0260986
0.0236673
0.0209312
0.017958
0.014896
0.0118701
0.00896339
0.00622091
0.00365695
0.00125689
0.0331912
0.0338043
0.0344094
0.0349877
0.0355209
0.0359917
0.0363837
0.0366818
0.0368721
0.0369417
0.0368786
0.036671
0.036308
0.035778
0.0350692
0.0341689
0.0330629
0.0317352
0.0301673
0.0283379
0.0262228
0.0237994
0.0210661
0.0180862
0.0150097
0.0119647
0.00903678
0.00627262
0.00368761
0.00126745
0.0331647
0.0337779
0.0343839
0.0349639
0.0354994
0.0359731
0.0363686
0.0366708
0.0368657
0.0369402
0.0368822
0.0366802
0.0363229
0.0357988
0.0350961
0.034202
0.0331021
0.0317804
0.0302184
0.0283946
0.0262846
0.0238651
0.0211333
0.0181501
0.0150666
0.012012
0.00907345
0.00629847
0.00370293
0.00127273
0.0331647
0.0337779
0.0343839
0.0349639
0.0354994
0.0359731
0.0363686
0.0366708
0.0368657
0.0369402
0.0368822
0.0366802
0.0363229
0.0357988
0.0350961
0.034202
0.0331021
0.0317804
0.0302184
0.0283946
0.0262846
0.0238651
0.0211333
0.0181501
0.0150666
0.012012
0.00907345
0.00629847
0.00370293
0.00127273
0.0331912
0.0338043
0.0344094
0.0349877
0.0355209
0.0359917
0.0363837
0.0366818
0.0368721
0.0369417
0.0368786
0.036671
0.036308
0.035778
0.0350692
0.0341689
0.0330629
0.0317352
0.0301673
0.0283379
0.0262228
0.0237994
0.0210661
0.0180862
0.0150097
0.0119647
0.00903678
0.00627262
0.00368761
0.00126745
0.0332442
0.0338569
0.0344601
0.035035
0.0355635
0.0360283
0.0364131
0.0367031
0.0368843
0.0369441
0.0368703
0.0366518
0.0362772
0.0357354
0.0350145
0.034102
0.0329837
0.0316439
0.0300642
0.0282237
0.0260986
0.0236673
0.0209312
0.017958
0.014896
0.0118701
0.00896339
0.00622091
0.00365695
0.00125689
0.0333237
0.0339355
0.0345356
0.0351052
0.0356264
0.0360819
0.0364557
0.0367332
0.0369006
0.0369454
0.0368558
0.0366205
0.0362286
0.035669
0.03493
0.0339992
0.0328626
0.0315047
0.0299075
0.0280505
0.0259105
0.0234677
0.0207278
0.0177651
0.014725
0.0117279
0.00885324
0.00614329
0.00361092
0.00124103
0.0334297
0.0340399
0.0346353
0.0351974
0.0357083
0.036151
0.0365098
0.0367702
0.0369189
0.0369434
0.0368323
0.0365746
0.0361595
0.035576
0.0348128
0.0338577
0.0326968
0.031315
0.0296947
0.0278158
0.0256563
0.0231988
0.0204547
0.0175067
0.0144964
0.0115382
0.00870629
0.00603974
0.00354949
0.00121982
0.0335621
0.0341695
0.0347584
0.0353104
0.0358077
0.0362337
0.0365731
0.0368115
0.0369361
0.0369349
0.0367966
0.0365105
0.0360661
0.0354528
0.0346594
0.0336739
0.0324829
0.0310715
0.0294226
0.0275168
0.0253335
0.0228585
0.0201106
0.0171823
0.0142102
0.0113009
0.00852263
0.00591033
0.00347268
0.00119325
0.0337205
0.0343236
0.0349038
0.0354426
0.0359228
0.0363279
0.036643
0.0368544
0.0369494
0.0369166
0.036745
0.0364245
0.0359447
0.0352954
0.0344657
0.0334438
0.0322169
0.0307703
0.0290876
0.0271503
0.0249393
0.0224447
0.0196943
0.0167917
0.0138665
0.0110165
0.00830272
0.00575536
0.00338063
0.00116134
0.0339043
0.0345011
0.0350698
0.0355922
0.0360513
0.036431
0.036717
0.0368959
0.0369557
0.0368854
0.0366745
0.0363132
0.0357917
0.0351002
0.034228
0.0331639
0.0318954
0.0304084
0.028687
0.0267137
0.0244717
0.0219564
0.0192062
0.0163361
0.0134671
0.0106866
0.00804783
0.00557574
0.00327385
0.00112421
0.0341125
0.0347007
0.0352545
0.0357567
0.0361904
0.0365402
0.0367922
0.0369335
0.0369528
0.0368393
0.0365833
0.0361753
0.0356061
0.0348661
0.0339454
0.0328332
0.0315174
0.0299848
0.0282201
0.0262072
0.0239319
0.0213965
0.0186508
0.015821
0.0130175
0.0103162
0.00776196
0.00537431
0.00315402
0.00108243
0.0343477
0.0349216
0.0354558
0.0359329
0.0363363
0.0366512
0.0368641
0.0369631
0.036937
0.0367758
0.0364701
0.0360109
0.0353892
0.0345959
0.0336212
0.0324548
0.0310852
0.0294999
0.0276848
0.0256258
0.0233136
0.0207618
0.0180386
0.0152645
0.0125379
0.00992446
0.00746141
0.00516356
0.00302928
0.00103937
0.0343503
0.0349231
0.035457
0.035934
0.0363374
0.0366524
0.0368656
0.0369648
0.0369391
0.0367785
0.0364736
0.0360152
0.0353946
0.0346024
0.033629
0.0324639
0.0310958
0.0295119
0.0276982
0.0256404
0.0233291
0.0207778
0.0180544
0.0152792
0.012551
0.00993565
0.00747034
0.00517008
0.0030333
0.00104084
0.0341147
0.0347028
0.0352566
0.0357587
0.0361925
0.0365424
0.0367944
0.0369359
0.0369553
0.0368419
0.0365861
0.0361782
0.0356091
0.0348693
0.0339486
0.0328364
0.0315205
0.0299875
0.0282225
0.026209
0.023933
0.0213969
0.0186506
0.0158206
0.0130169
0.0103156
0.00776146
0.00537393
0.00315377
0.00108232
0.0339069
0.0345038
0.0350724
0.0355949
0.036054
0.0364338
0.0367198
0.0368987
0.0369584
0.036888
0.0366769
0.0363154
0.0357937
0.0351018
0.0342292
0.0331646
0.0318954
0.0304077
0.0286856
0.0267115
0.0244686
0.0219526
0.0192018
0.0163317
0.0134631
0.0106832
0.00804515
0.00557381
0.00327268
0.00112378
0.0337231
0.0343264
0.0349066
0.0354456
0.0359258
0.0363309
0.0366459
0.0368572
0.0369521
0.036919
0.0367472
0.0364263
0.0359461
0.0352962
0.0344659
0.0334435
0.0322158
0.0307685
0.029085
0.0271468
0.024935
0.0224397
0.0196889
0.0167864
0.0138617
0.0110124
0.00829954
0.0057531
0.00337927
0.00116085
0.0335646
0.0341722
0.0347613
0.0353133
0.0358107
0.0362366
0.0365759
0.0368142
0.0369386
0.0369371
0.0367985
0.036512
0.0360672
0.0354534
0.0346594
0.0336732
0.0324816
0.0310695
0.0294199
0.0275134
0.0253294
0.0228538
0.0201055
0.0171774
0.0142057
0.0112971
0.00851968
0.00590823
0.00347142
0.0011928
0.0334321
0.0340424
0.034638
0.0352001
0.035711
0.0361536
0.0365123
0.0367726
0.036921
0.0369453
0.036834
0.0365759
0.0361604
0.0355765
0.0348128
0.0338572
0.0326958
0.0313134
0.0296926
0.0278131
0.025653
0.023195
0.0204507
0.0175027
0.0144928
0.0115351
0.00870389
0.00603803
0.00354847
0.00121945
0.0333259
0.0339378
0.0345379
0.0351076
0.0356287
0.0360841
0.0364579
0.0367352
0.0369025
0.0369471
0.0368572
0.0366217
0.0362295
0.0356695
0.0349302
0.033999
0.032862
0.0315037
0.0299061
0.0280486
0.0259082
0.0234651
0.020725
0.0177622
0.0147223
0.0117257
0.0088515
0.00614205
0.00361018
0.00124076
0.0332462
0.033859
0.0344622
0.0350371
0.0355655
0.0360302
0.036415
0.0367048
0.0368859
0.0369455
0.0368716
0.0366529
0.0362781
0.035736
0.0350149
0.0341022
0.0329836
0.0316435
0.0300636
0.0282227
0.0260973
0.0236657
0.0209294
0.0179562
0.0148943
0.0118687
0.00896228
0.00622011
0.00365647
0.00125672
0.0331931
0.0338062
0.0344113
0.0349895
0.0355227
0.0359934
0.0363853
0.0366833
0.0368735
0.036943
0.0368797
0.0366721
0.0363089
0.0357788
0.0350699
0.0341694
0.0330632
0.0317353
0.0301672
0.0283376
0.0262223
0.0237986
0.0210651
0.0180852
0.0150088
0.0119639
0.00903613
0.00627216
0.00368733
0.00126735
0.0331665
0.0337798
0.0343857
0.0349656
0.035501
0.0359747
0.0363701
0.0366722
0.036867
0.0369414
0.0368833
0.0366813
0.0363238
0.0357997
0.0350969
0.0342026
0.0331026
0.0317807
0.0302186
0.0283946
0.0262844
0.0238647
0.0211328
0.0181495
0.015066
0.0120116
0.00907306
0.00629818
0.00370275
0.00127266
0.0331665
0.0337798
0.0343857
0.0349656
0.035501
0.0359747
0.0363701
0.0366722
0.036867
0.0369414
0.0368833
0.0366813
0.0363238
0.0357997
0.0350969
0.0342026
0.0331026
0.0317807
0.0302186
0.0283946
0.0262844
0.0238647
0.0211328
0.0181495
0.015066
0.0120116
0.00907306
0.00629818
0.00370275
0.00127266
0.0331931
0.0338062
0.0344113
0.0349895
0.0355227
0.0359934
0.0363853
0.0366833
0.0368735
0.036943
0.0368797
0.0366721
0.0363089
0.0357788
0.0350699
0.0341694
0.0330632
0.0317353
0.0301672
0.0283376
0.0262223
0.0237986
0.0210651
0.0180852
0.0150088
0.0119639
0.00903613
0.00627216
0.00368733
0.00126735
0.0332462
0.033859
0.0344622
0.0350371
0.0355655
0.0360302
0.036415
0.0367048
0.0368859
0.0369455
0.0368716
0.0366529
0.0362781
0.035736
0.0350149
0.0341022
0.0329836
0.0316435
0.0300636
0.0282227
0.0260973
0.0236657
0.0209294
0.0179562
0.0148943
0.0118687
0.00896228
0.00622011
0.00365647
0.00125672
0.0333259
0.0339378
0.0345379
0.0351076
0.0356287
0.0360841
0.0364579
0.0367352
0.0369025
0.0369471
0.0368572
0.0366217
0.0362295
0.0356695
0.0349302
0.033999
0.032862
0.0315037
0.0299061
0.0280486
0.0259082
0.0234651
0.020725
0.0177622
0.0147223
0.0117257
0.0088515
0.00614205
0.00361018
0.00124076
0.0334321
0.0340424
0.034638
0.0352001
0.035711
0.0361536
0.0365123
0.0367726
0.036921
0.0369453
0.036834
0.0365759
0.0361604
0.0355765
0.0348128
0.0338572
0.0326958
0.0313134
0.0296926
0.0278131
0.025653
0.023195
0.0204507
0.0175027
0.0144928
0.0115351
0.00870389
0.00603803
0.00354847
0.00121945
0.0335646
0.0341722
0.0347613
0.0353133
0.0358107
0.0362366
0.0365759
0.0368142
0.0369386
0.0369371
0.0367985
0.036512
0.0360672
0.0354534
0.0346594
0.0336732
0.0324816
0.0310695
0.0294199
0.0275134
0.0253294
0.0228538
0.0201055
0.0171774
0.0142057
0.0112971
0.00851968
0.00590823
0.00347142
0.0011928
0.0337231
0.0343264
0.0349066
0.0354456
0.0359258
0.0363309
0.0366459
0.0368572
0.0369521
0.036919
0.0367472
0.0364263
0.0359461
0.0352962
0.0344659
0.0334435
0.0322158
0.0307685
0.029085
0.0271468
0.024935
0.0224397
0.0196889
0.0167864
0.0138617
0.0110124
0.00829954
0.0057531
0.00337927
0.00116085
0.0339069
0.0345038
0.0350724
0.0355949
0.036054
0.0364338
0.0367198
0.0368987
0.0369584
0.036888
0.0366769
0.0363154
0.0357937
0.0351018
0.0342292
0.0331646
0.0318954
0.0304077
0.0286856
0.0267115
0.0244686
0.0219526
0.0192018
0.0163317
0.0134631
0.0106832
0.00804515
0.00557381
0.00327268
0.00112378
0.0341147
0.0347028
0.0352566
0.0357587
0.0361925
0.0365424
0.0367944
0.0369359
0.0369553
0.0368419
0.0365861
0.0361782
0.0356091
0.0348693
0.0339486
0.0328364
0.0315205
0.0299875
0.0282225
0.026209
0.023933
0.0213969
0.0186506
0.0158206
0.0130169
0.0103156
0.00776146
0.00537393
0.00315377
0.00108232
0.0343503
0.0349231
0.035457
0.035934
0.0363374
0.0366524
0.0368656
0.0369648
0.0369391
0.0367785
0.0364736
0.0360152
0.0353946
0.0346024
0.033629
0.0324639
0.0310958
0.0295119
0.0276982
0.0256404
0.0233291
0.0207778
0.0180544
0.0152792
0.012551
0.00993565
0.00747034
0.00517008
0.0030333
0.00104084
)
;

boundaryField
{
    walls
    {
        type            fixedValue;
        value           uniform 1e-10;
    }
    inlet
    {
        type            cyclic;
    }
    outlet
    {
        type            cyclic;
    }
}


// ************************************************************************* //
