/*--------------------------------*- C++ -*----------------------------------*\
| =========                 |                                                 |
| \\      /  F ield         | OpenFOAM: The Open Source CFD Toolbox           |
|  \\    /   O peration     | Version:  2306                                  |
|   \\  /    A nd           | Website:  www.openfoam.com                      |
|    \\/     M anipulation  |                                                 |
\*---------------------------------------------------------------------------*/
FoamFile
{
    version     2.0;
    format      ascii;
    arch        "LSB;label=32;scalar=64";
    class       volScalarField;
    location    "12336";
    object      k;
}
// * * * * * * * * * * * * * * * * * * * * * * * * * * * * * * * * * * * * * //

dimensions      [0 2 -2 0 0 0 0];

internalField   nonuniform List<scalar> 
2800
(
0.00302596
0.00293024
0.00284535
0.00277216
0.00271042
0.00265971
0.00261964
0.00258987
0.00257017
0.00256036
0.00256036
0.00257017
0.00258987
0.00261964
0.00265971
0.00271042
0.00277216
0.00284535
0.00293024
0.00302596
0.00292977
0.00281286
0.00271296
0.00262785
0.00255642
0.00249794
0.00245184
0.00241767
0.00239508
0.00238384
0.00238384
0.00239508
0.00241767
0.00245184
0.00249794
0.00255642
0.00262785
0.00271296
0.00281286
0.00292977
0.00284481
0.00271272
0.00260003
0.00250482
0.00242548
0.00236086
0.00231012
0.00227261
0.00224786
0.00223556
0.00223556
0.00224786
0.00227261
0.00231012
0.00236086
0.00242548
0.00250482
0.00260003
0.00271272
0.00284481
0.00277165
0.00262752
0.00250468
0.00240129
0.00231558
0.00224613
0.00219181
0.00215179
0.00212544
0.00211237
0.00211237
0.00212544
0.00215179
0.00219181
0.00224613
0.00231558
0.00240129
0.00250468
0.00262752
0.00277165
0.00270995
0.00255608
0.00242528
0.0023155
0.00222484
0.00215166
0.00209464
0.00205275
0.00202524
0.00201161
0.00201161
0.00202524
0.00205275
0.00209464
0.00215166
0.00222484
0.0023155
0.00242528
0.00255608
0.00270995
0.0026593
0.00249762
0.00236064
0.002246
0.00215161
0.00207566
0.00201665
0.00197341
0.00194507
0.00193104
0.00193104
0.00194507
0.00197341
0.00201665
0.00207566
0.00215161
0.002246
0.00236064
0.00249762
0.0026593
0.00261929
0.00245154
0.00230989
0.00219166
0.00209455
0.00201661
0.0019562
0.00191202
0.00188311
0.00186881
0.00186881
0.00188311
0.00191202
0.0019562
0.00201661
0.00209455
0.00219166
0.00230989
0.00245154
0.00261929
0.00258957
0.0024174
0.00227239
0.00215163
0.00205265
0.00197335
0.001912
0.0018672
0.00183791
0.00182344
0.00182344
0.00183791
0.0018672
0.001912
0.00197335
0.00205265
0.00215163
0.00227239
0.0024174
0.00258957
0.00256989
0.00239483
0.00224765
0.00212528
0.00202512
0.00194499
0.00188307
0.0018379
0.00180839
0.00179382
0.00179382
0.00180839
0.0018379
0.00188307
0.00194499
0.00202512
0.00212528
0.00224765
0.00239483
0.00256989
0.0025601
0.0023836
0.00223536
0.00211221
0.00201149
0.00193096
0.00186876
0.00182342
0.00179381
0.00177919
0.00177919
0.00179381
0.00182342
0.00186876
0.00193096
0.00201149
0.00211221
0.00223536
0.0023836
0.0025601
0.0025601
0.0023836
0.00223536
0.00211221
0.00201149
0.00193096
0.00186876
0.00182342
0.00179381
0.00177919
0.00177919
0.00179381
0.00182342
0.00186876
0.00193096
0.00201149
0.00211221
0.00223536
0.0023836
0.0025601
0.00256989
0.00239483
0.00224765
0.00212528
0.00202512
0.00194499
0.00188307
0.0018379
0.00180839
0.00179382
0.00179382
0.00180839
0.0018379
0.00188307
0.00194499
0.00202512
0.00212528
0.00224765
0.00239483
0.00256989
0.00258957
0.0024174
0.00227239
0.00215163
0.00205265
0.00197335
0.001912
0.0018672
0.00183791
0.00182344
0.00182344
0.00183791
0.0018672
0.001912
0.00197335
0.00205265
0.00215163
0.00227239
0.0024174
0.00258957
0.00261929
0.00245154
0.00230989
0.00219166
0.00209455
0.00201661
0.0019562
0.00191202
0.00188311
0.00186881
0.00186881
0.00188311
0.00191202
0.0019562
0.00201661
0.00209455
0.00219166
0.00230989
0.00245154
0.00261929
0.0026593
0.00249762
0.00236064
0.002246
0.00215161
0.00207566
0.00201665
0.00197341
0.00194507
0.00193104
0.00193104
0.00194507
0.00197341
0.00201665
0.00207566
0.00215161
0.002246
0.00236064
0.00249762
0.0026593
0.00270995
0.00255608
0.00242528
0.0023155
0.00222484
0.00215166
0.00209464
0.00205275
0.00202524
0.00201161
0.00201161
0.00202524
0.00205275
0.00209464
0.00215166
0.00222484
0.0023155
0.00242528
0.00255608
0.00270995
0.00277165
0.00262752
0.00250468
0.00240129
0.00231558
0.00224613
0.00219181
0.00215179
0.00212544
0.00211237
0.00211237
0.00212544
0.00215179
0.00219181
0.00224613
0.00231558
0.00240129
0.00250468
0.00262752
0.00277165
0.00284481
0.00271272
0.00260003
0.00250482
0.00242548
0.00236086
0.00231012
0.00227261
0.00224786
0.00223556
0.00223556
0.00224786
0.00227261
0.00231012
0.00236086
0.00242548
0.00250482
0.00260003
0.00271272
0.00284481
0.00292977
0.00281286
0.00271296
0.00262785
0.00255642
0.00249794
0.00245184
0.00241767
0.00239508
0.00238384
0.00238384
0.00239508
0.00241767
0.00245184
0.00249794
0.00255642
0.00262785
0.00271296
0.00281286
0.00292977
0.00302596
0.00293024
0.00284535
0.00277216
0.00271042
0.00265971
0.00261964
0.00258987
0.00257017
0.00256036
0.00256036
0.00257017
0.00258987
0.00261964
0.00265971
0.00271042
0.00277216
0.00284535
0.00293024
0.00302596
0.00318673
0.00341611
0.00365338
0.00389622
0.00414284
0.00439163
0.00464103
0.0048893
0.0051344
0.00537365
0.00560349
0.00581899
0.00601336
0.00617708
0.00629699
0.006355
0.00632684
0.00618121
0.00588165
0.00539671
0.00472967
0.00396491
0.00323149
0.00256029
0.00196778
0.00146007
0.00103342
0.00067684
0.000376258
0.000118449
0.00309514
0.00332271
0.00355804
0.0037994
0.00404512
0.00429362
0.00454338
0.00479274
0.00503977
0.00528204
0.00551629
0.0057381
0.00594128
0.00611719
0.00625375
0.00633417
0.00633551
0.00622746
0.00597283
0.00553449
0.00490008
0.00412893
0.00337652
0.00268053
0.00206132
0.00152831
0.00107998
0.000706032
0.000391864
0.000123214
0.00301812
0.00324281
0.00347615
0.00371615
0.00396109
0.00420941
0.00445962
0.00471015
0.0049592
0.00520454
0.00544321
0.00567118
0.0058828
0.00607014
0.00622203
0.00632285
0.00635097
0.00627727
0.00606485
0.00567349
0.00507941
0.0043215
0.00354347
0.00281651
0.00216594
0.00160419
0.00113158
0.000738303
0.000409085
0.000128463
0.0029524
0.00317461
0.00340611
0.00364483
0.00388903
0.00413714
0.00438768
0.00463914
0.00488982
0.00513761
0.00537978
0.00561258
0.00583078
0.00602703
0.0061909
0.00630771
0.00635697
0.00631072
0.00613257
0.00578054
0.00522279
0.00448099
0.00368424
0.00293267
0.00225607
0.00166978
0.00117613
0.000766066
0.000423833
0.000132941
0.00289709
0.00311719
0.00334704
0.00358458
0.00382804
0.00407584
0.0043265
0.00457855
0.00483034
0.00507988
0.00532458
0.00556094
0.00578407
0.00598705
0.00616007
0.00628924
0.006355
0.00633037
0.00617961
0.00585974
0.00533327
0.00460819
0.00379858
0.00302832
0.00233097
0.00172451
0.0012133
0.000789142
0.000436038
0.000136633
0.00285167
0.00306996
0.00329838
0.00353485
0.00377758
0.00402499
0.0042756
0.00452794
0.00478041
0.00503112
0.00527759
0.00551651
0.00574326
0.00595127
0.00613121
0.00626982
0.00634829
0.00634046
0.00621117
0.00591695
0.00541642
0.004707
0.00388894
0.00310492
0.00239147
0.00176891
0.00124346
0.000807815
0.000445876
0.000139599
0.00281573
0.00303255
0.00325976
0.0034953
0.00373738
0.00398437
0.0042348
0.00448723
0.0047401
0.00499154
0.00523922
0.00547995
0.0057093
0.00592099
0.00610605
0.0062517
0.0063397
0.00634457
0.00623162
0.00595717
0.00547718
0.00478123
0.00395787
0.00316405
0.00243855
0.00180362
0.00126704
0.000822385
0.000453528
0.000141899
0.00278901
0.00300468
0.00323095
0.00346575
0.00370727
0.00395388
0.00420412
0.00445653
0.00470959
0.00496149
0.00520995
0.0054519
0.00568305
0.00589731
0.006086
0.00623664
0.00633146
0.00634542
0.00624427
0.00598421
0.00551946
0.00483408
0.00400758
0.00320712
0.00247309
0.00182917
0.00128441
0.000833099
0.000459141
0.000143583
0.0027713
0.00298618
0.00321181
0.0034461
0.00368721
0.00393354
0.0041836
0.00443596
0.00468911
0.00494127
0.0051902
0.0054329
0.00566518
0.00588108
0.00607207
0.00622592
0.00632513
0.00634497
0.00625146
0.00600079
0.00554611
0.00486799
0.00403977
0.00323522
0.00249573
0.00184597
0.00129585
0.000840142
0.000462824
0.000144686
0.00276248
0.00297696
0.00320226
0.00343628
0.00367719
0.00392336
0.00417333
0.00442565
0.00467882
0.00493109
0.00518025
0.00542331
0.00565613
0.00587282
0.00606494
0.00622036
0.00632172
0.00634445
0.0062547
0.00600865
0.00555898
0.00488454
0.00405558
0.00324908
0.00250694
0.0018543
0.00130152
0.000843634
0.000464648
0.000145232
0.00276248
0.00297696
0.00320226
0.00343628
0.00367719
0.00392336
0.00417333
0.00442565
0.00467882
0.00493109
0.00518025
0.00542331
0.00565613
0.00587282
0.00606494
0.00622036
0.00632172
0.00634445
0.0062547
0.00600865
0.00555898
0.00488454
0.00405558
0.00324908
0.00250694
0.0018543
0.00130152
0.000843634
0.000464648
0.000145232
0.0027713
0.00298618
0.00321181
0.0034461
0.00368721
0.00393354
0.0041836
0.00443596
0.00468911
0.00494127
0.0051902
0.0054329
0.00566518
0.00588108
0.00607207
0.00622592
0.00632513
0.00634497
0.00625146
0.00600079
0.00554611
0.00486799
0.00403977
0.00323522
0.00249573
0.00184597
0.00129585
0.000840142
0.000462824
0.000144686
0.00278901
0.00300468
0.00323095
0.00346575
0.00370727
0.00395388
0.00420412
0.00445653
0.00470959
0.00496149
0.00520995
0.0054519
0.00568305
0.00589731
0.006086
0.00623664
0.00633146
0.00634542
0.00624427
0.00598421
0.00551946
0.00483408
0.00400758
0.00320712
0.00247309
0.00182917
0.00128441
0.000833099
0.000459141
0.000143583
0.00281573
0.00303255
0.00325976
0.0034953
0.00373738
0.00398437
0.0042348
0.00448723
0.0047401
0.00499154
0.00523922
0.00547995
0.0057093
0.00592099
0.00610605
0.0062517
0.0063397
0.00634457
0.00623162
0.00595717
0.00547718
0.00478123
0.00395787
0.00316405
0.00243855
0.00180362
0.00126704
0.000822385
0.000453528
0.000141899
0.00285167
0.00306996
0.00329838
0.00353485
0.00377758
0.00402499
0.0042756
0.00452794
0.00478041
0.00503112
0.00527759
0.00551651
0.00574326
0.00595127
0.00613121
0.00626982
0.00634829
0.00634046
0.00621117
0.00591695
0.00541642
0.004707
0.00388894
0.00310492
0.00239147
0.00176891
0.00124346
0.000807815
0.000445876
0.000139599
0.00289709
0.00311719
0.00334704
0.00358458
0.00382804
0.00407584
0.0043265
0.00457855
0.00483034
0.00507988
0.00532458
0.00556094
0.00578407
0.00598705
0.00616007
0.00628924
0.006355
0.00633037
0.00617961
0.00585974
0.00533327
0.00460819
0.00379858
0.00302832
0.00233097
0.00172451
0.0012133
0.000789142
0.000436038
0.000136633
0.0029524
0.00317461
0.00340611
0.00364483
0.00388903
0.00413714
0.00438768
0.00463914
0.00488981
0.00513761
0.00537978
0.00561258
0.00583078
0.00602703
0.0061909
0.00630771
0.00635697
0.00631072
0.00613257
0.00578054
0.00522279
0.00448099
0.00368424
0.00293267
0.00225607
0.00166978
0.00117613
0.000766066
0.000423833
0.000132941
0.00301812
0.00324281
0.00347615
0.00371615
0.00396109
0.00420941
0.00445962
0.00471015
0.0049592
0.00520454
0.00544321
0.00567118
0.0058828
0.00607014
0.00622203
0.00632285
0.00635097
0.00627727
0.00606485
0.00567349
0.00507941
0.0043215
0.00354347
0.00281651
0.00216594
0.00160419
0.00113158
0.000738303
0.000409085
0.000128463
0.00309514
0.00332271
0.00355804
0.0037994
0.00404512
0.00429362
0.00454338
0.00479274
0.00503977
0.00528204
0.00551629
0.0057381
0.00594128
0.00611719
0.00625375
0.00633417
0.00633551
0.00622746
0.00597283
0.00553449
0.00490008
0.00412893
0.00337652
0.00268053
0.00206132
0.00152831
0.00107998
0.000706032
0.000391864
0.000123214
0.00318673
0.00341611
0.00365338
0.00389622
0.00414284
0.00439163
0.00464103
0.0048893
0.0051344
0.00537365
0.00560349
0.00581899
0.00601335
0.00617708
0.00629699
0.006355
0.00632684
0.00618121
0.00588165
0.00539671
0.00472967
0.00396491
0.00323149
0.00256029
0.00196778
0.00146007
0.00103342
0.00067684
0.000376258
0.000118449
0.00318805
0.00341736
0.00365472
0.00389769
0.00414442
0.0043933
0.00464276
0.00489106
0.00513616
0.0053754
0.0056052
0.00582067
0.00601501
0.00617874
0.00629872
0.00635688
0.00632897
0.00618373
0.00588468
0.00540029
0.00473364
0.0039688
0.00323507
0.0025634
0.00197034
0.00146206
0.00103488
0.00067782
0.000376815
0.000118628
0.00309579
0.00332344
0.0035588
0.00380019
0.00404592
0.00429442
0.00454415
0.00479347
0.00504045
0.00528266
0.00551686
0.00573862
0.00594175
0.00611761
0.00625411
0.00633444
0.00633563
0.00622735
0.00597238
0.00553362
0.00489881
0.00412753
0.00337532
0.00267957
0.00206058
0.00152778
0.00107962
0.000705807
0.000391743
0.000123175
0.0030187
0.0032434
0.00347675
0.00371676
0.00396171
0.00421005
0.00446027
0.00471081
0.00495988
0.00520523
0.00544393
0.0056719
0.00588351
0.00607082
0.00622263
0.00632329
0.00635115
0.00627709
0.00606414
0.00567213
0.00507743
0.00431922
0.00354144
0.00281482
0.00216462
0.00160322
0.00113091
0.000737886
0.000408861
0.000128392
0.00295294
0.00317514
0.00340663
0.00364536
0.00388958
0.00413772
0.0043883
0.0046398
0.00489052
0.00513835
0.00538056
0.00561338
0.00583158
0.00602778
0.00619156
0.00630821
0.00635721
0.00631059
0.00613194
0.00577929
0.00522092
0.00447877
0.00368223
0.00293098
0.00225475
0.00166881
0.00117547
0.000765652
0.000423612
0.000132872
0.00289759
0.00311766
0.0033475
0.00358505
0.00382853
0.00407636
0.00432706
0.00457916
0.00483099
0.00508056
0.0053253
0.00556168
0.0057848
0.00598774
0.00616068
0.00628971
0.00635526
0.00633034
0.00617916
0.00585877
0.00533177
0.00460636
0.00379689
0.00302689
0.00232983
0.00172367
0.00121273
0.000788787
0.000435849
0.000136574
0.00285211
0.00307038
0.00329878
0.00353525
0.00377799
0.00402543
0.00427606
0.00452844
0.00478095
0.00503168
0.00527818
0.00551711
0.00574385
0.00595184
0.00613172
0.00627023
0.00634854
0.00634049
0.00621089
0.00591628
0.00541532
0.00470561
0.00388764
0.0031038
0.00239058
0.00176826
0.00124301
0.000807537
0.000445729
0.000139553
0.00281613
0.00303291
0.0032601
0.00349563
0.0037377
0.0039847
0.00423515
0.0044876
0.00474049
0.00499196
0.00523965
0.00548039
0.00570974
0.00592141
0.00610644
0.00625202
0.00633992
0.00634463
0.00623147
0.00595674
0.00547644
0.00478026
0.00395695
0.00316325
0.00243791
0.00180314
0.00126672
0.000822183
0.000453421
0.000141866
0.00278936
0.00300499
0.00323123
0.00346601
0.00370751
0.00395412
0.00420436
0.00445678
0.00470985
0.00496176
0.00521024
0.00545219
0.00568334
0.0058976
0.00608626
0.00623687
0.00633163
0.00634549
0.0062442
0.00598396
0.005519
0.00483346
0.00400697
0.00320658
0.00247265
0.00182884
0.00128419
0.000832962
0.000459068
0.00014356
0.00277163
0.00298646
0.00321204
0.0034463
0.00368739
0.00393371
0.00418376
0.00443612
0.00468927
0.00494143
0.00519037
0.00543308
0.00566536
0.00588126
0.00607225
0.00622608
0.00632525
0.00634504
0.00625144
0.00600065
0.00554584
0.0048676
0.00403938
0.00323487
0.00249545
0.00184576
0.0012957
0.000840052
0.000462776
0.00014467
0.00276279
0.00297722
0.00320247
0.00343645
0.00367733
0.00392349
0.00417344
0.00442575
0.00467893
0.0049312
0.00518036
0.00542343
0.00565626
0.00587295
0.00606507
0.00622048
0.00632181
0.00634451
0.0062547
0.00600858
0.0055588
0.00488427
0.0040553
0.00324884
0.00250674
0.00185414
0.00130141
0.000843568
0.000464612
0.00014522
0.00276279
0.00297722
0.00320247
0.00343645
0.00367733
0.00392349
0.00417344
0.00442575
0.00467893
0.0049312
0.00518036
0.00542343
0.00565626
0.00587295
0.00606507
0.00622048
0.00632181
0.00634451
0.0062547
0.00600858
0.0055588
0.00488427
0.0040553
0.00324884
0.00250674
0.00185414
0.00130141
0.000843568
0.000464612
0.00014522
0.00277163
0.00298646
0.00321204
0.0034463
0.00368739
0.00393371
0.00418376
0.00443612
0.00468927
0.00494143
0.00519037
0.00543308
0.00566536
0.00588126
0.00607225
0.00622608
0.00632525
0.00634504
0.00625144
0.00600065
0.00554584
0.0048676
0.00403938
0.00323487
0.00249545
0.00184576
0.0012957
0.000840052
0.000462776
0.00014467
0.00278936
0.00300499
0.00323123
0.00346601
0.00370751
0.00395412
0.00420436
0.00445678
0.00470985
0.00496176
0.00521024
0.00545219
0.00568334
0.0058976
0.00608626
0.00623687
0.00633163
0.00634549
0.0062442
0.00598396
0.005519
0.00483346
0.00400697
0.00320658
0.00247265
0.00182884
0.00128419
0.000832962
0.000459068
0.00014356
0.00281613
0.00303291
0.0032601
0.00349563
0.0037377
0.0039847
0.00423515
0.0044876
0.00474049
0.00499196
0.00523965
0.00548039
0.00570974
0.00592141
0.00610644
0.00625202
0.00633992
0.00634463
0.00623147
0.00595674
0.00547644
0.00478026
0.00395695
0.00316325
0.00243791
0.00180314
0.00126672
0.000822183
0.000453421
0.000141866
0.00285211
0.00307038
0.00329878
0.00353525
0.00377799
0.00402543
0.00427606
0.00452844
0.00478095
0.00503168
0.00527818
0.00551711
0.00574385
0.00595184
0.00613172
0.00627023
0.00634854
0.00634049
0.00621089
0.00591628
0.00541532
0.00470561
0.00388764
0.0031038
0.00239058
0.00176826
0.00124301
0.000807537
0.000445729
0.000139553
0.00289759
0.00311766
0.0033475
0.00358505
0.00382853
0.00407636
0.00432706
0.00457916
0.00483099
0.00508056
0.0053253
0.00556168
0.0057848
0.00598774
0.00616068
0.00628971
0.00635526
0.00633034
0.00617916
0.00585877
0.00533177
0.00460636
0.00379689
0.00302689
0.00232983
0.00172367
0.00121273
0.000788787
0.000435849
0.000136574
0.00295294
0.00317514
0.00340663
0.00364536
0.00388958
0.00413772
0.0043883
0.0046398
0.00489052
0.00513835
0.00538056
0.00561338
0.00583158
0.00602778
0.00619156
0.00630821
0.00635721
0.00631059
0.00613194
0.00577929
0.00522092
0.00447877
0.00368223
0.00293098
0.00225475
0.00166881
0.00117547
0.000765652
0.000423612
0.000132872
0.0030187
0.0032434
0.00347675
0.00371676
0.00396171
0.00421005
0.00446027
0.00471081
0.00495988
0.00520523
0.00544393
0.0056719
0.00588351
0.00607082
0.00622263
0.00632329
0.00635115
0.00627709
0.00606414
0.00567213
0.00507743
0.00431922
0.00354144
0.00281482
0.00216462
0.00160322
0.00113091
0.000737886
0.000408861
0.000128392
0.00309579
0.00332344
0.0035588
0.00380019
0.00404592
0.00429442
0.00454415
0.00479347
0.00504045
0.00528266
0.00551686
0.00573862
0.00594175
0.00611761
0.00625411
0.00633444
0.00633563
0.00622735
0.00597238
0.00553362
0.00489881
0.00412753
0.00337532
0.00267957
0.00206058
0.00152778
0.00107962
0.000705807
0.000391743
0.000123175
0.00318805
0.00341736
0.00365472
0.00389769
0.00414442
0.0043933
0.00464276
0.00489106
0.00513616
0.0053754
0.0056052
0.00582067
0.00601501
0.00617874
0.00629872
0.00635688
0.00632897
0.00618373
0.00588468
0.00540029
0.00473364
0.0039688
0.00323507
0.0025634
0.00197034
0.00146206
0.00103488
0.00067782
0.000376815
0.000118628
0.00318673
0.00341611
0.00365338
0.00389622
0.00414284
0.00439163
0.00464103
0.0048893
0.0051344
0.00537365
0.00560349
0.00581899
0.00601336
0.00617708
0.00629699
0.006355
0.00632684
0.00618121
0.00588165
0.00539671
0.00472967
0.00396491
0.00323149
0.00256029
0.00196778
0.00146007
0.00103342
0.00067684
0.000376258
0.000118449
0.00309514
0.00332271
0.00355804
0.0037994
0.00404512
0.00429362
0.00454338
0.00479274
0.00503977
0.00528204
0.00551629
0.0057381
0.00594128
0.00611719
0.00625375
0.00633417
0.00633551
0.00622746
0.00597283
0.00553449
0.00490008
0.00412893
0.00337652
0.00268053
0.00206132
0.00152831
0.00107998
0.000706032
0.000391864
0.000123214
0.00301812
0.00324281
0.00347615
0.00371615
0.00396109
0.00420941
0.00445962
0.00471015
0.0049592
0.00520454
0.00544321
0.00567118
0.0058828
0.00607014
0.00622203
0.00632285
0.00635097
0.00627727
0.00606485
0.00567349
0.00507941
0.0043215
0.00354347
0.00281651
0.00216594
0.00160419
0.00113158
0.000738303
0.000409085
0.000128463
0.0029524
0.00317461
0.00340611
0.00364483
0.00388903
0.00413714
0.00438768
0.00463914
0.00488982
0.00513761
0.00537978
0.00561258
0.00583078
0.00602703
0.0061909
0.00630771
0.00635697
0.00631072
0.00613257
0.00578054
0.00522279
0.00448099
0.00368424
0.00293267
0.00225607
0.00166978
0.00117613
0.000766066
0.000423833
0.000132941
0.00289709
0.00311719
0.00334704
0.00358458
0.00382804
0.00407584
0.0043265
0.00457855
0.00483034
0.00507988
0.00532458
0.00556094
0.00578407
0.00598705
0.00616007
0.00628924
0.006355
0.00633037
0.00617961
0.00585974
0.00533327
0.00460819
0.00379858
0.00302832
0.00233097
0.00172451
0.0012133
0.000789142
0.000436038
0.000136633
0.00285167
0.00306996
0.00329838
0.00353485
0.00377758
0.00402499
0.0042756
0.00452794
0.00478041
0.00503112
0.00527759
0.00551651
0.00574326
0.00595127
0.00613121
0.00626982
0.00634829
0.00634046
0.00621117
0.00591695
0.00541642
0.004707
0.00388894
0.00310492
0.00239147
0.00176891
0.00124346
0.000807815
0.000445876
0.000139599
0.00281573
0.00303255
0.00325976
0.0034953
0.00373738
0.00398437
0.0042348
0.00448723
0.0047401
0.00499154
0.00523922
0.00547995
0.0057093
0.00592099
0.00610605
0.0062517
0.0063397
0.00634457
0.00623162
0.00595717
0.00547718
0.00478123
0.00395787
0.00316405
0.00243855
0.00180362
0.00126704
0.000822385
0.000453528
0.000141899
0.00278901
0.00300468
0.00323095
0.00346575
0.00370727
0.00395388
0.00420412
0.00445653
0.00470959
0.00496149
0.00520995
0.0054519
0.00568305
0.00589731
0.006086
0.00623664
0.00633146
0.00634542
0.00624427
0.00598421
0.00551946
0.00483408
0.00400758
0.00320712
0.00247309
0.00182917
0.00128441
0.000833099
0.000459141
0.000143583
0.0027713
0.00298618
0.00321181
0.0034461
0.00368721
0.00393354
0.0041836
0.00443596
0.00468911
0.00494127
0.0051902
0.0054329
0.00566518
0.00588108
0.00607207
0.00622592
0.00632513
0.00634497
0.00625146
0.00600079
0.00554611
0.00486799
0.00403977
0.00323522
0.00249573
0.00184597
0.00129585
0.000840142
0.000462824
0.000144686
0.00276248
0.00297696
0.00320226
0.00343628
0.00367719
0.00392336
0.00417333
0.00442565
0.00467882
0.00493109
0.00518025
0.00542331
0.00565613
0.00587282
0.00606494
0.00622036
0.00632172
0.00634445
0.0062547
0.00600865
0.00555898
0.00488454
0.00405558
0.00324908
0.00250694
0.0018543
0.00130152
0.000843634
0.000464648
0.000145232
0.00276248
0.00297696
0.00320226
0.00343628
0.00367719
0.00392336
0.00417333
0.00442565
0.00467882
0.00493109
0.00518025
0.00542331
0.00565613
0.00587282
0.00606494
0.00622036
0.00632172
0.00634445
0.0062547
0.00600865
0.00555898
0.00488454
0.00405558
0.00324908
0.00250694
0.0018543
0.00130152
0.000843634
0.000464648
0.000145232
0.0027713
0.00298618
0.00321181
0.0034461
0.00368721
0.00393354
0.0041836
0.00443596
0.00468911
0.00494127
0.0051902
0.0054329
0.00566518
0.00588108
0.00607207
0.00622592
0.00632513
0.00634497
0.00625146
0.00600079
0.00554611
0.00486799
0.00403977
0.00323522
0.00249573
0.00184597
0.00129585
0.000840142
0.000462824
0.000144686
0.00278901
0.00300468
0.00323095
0.00346575
0.00370727
0.00395388
0.00420412
0.00445653
0.00470959
0.00496149
0.00520995
0.0054519
0.00568305
0.00589731
0.006086
0.00623664
0.00633146
0.00634542
0.00624427
0.00598421
0.00551946
0.00483408
0.00400758
0.00320712
0.00247309
0.00182917
0.00128441
0.000833099
0.000459141
0.000143583
0.00281573
0.00303255
0.00325976
0.0034953
0.00373738
0.00398437
0.0042348
0.00448723
0.0047401
0.00499154
0.00523922
0.00547995
0.0057093
0.00592099
0.00610605
0.0062517
0.0063397
0.00634457
0.00623162
0.00595717
0.00547718
0.00478123
0.00395787
0.00316405
0.00243855
0.00180362
0.00126704
0.000822385
0.000453528
0.000141899
0.00285167
0.00306996
0.00329838
0.00353485
0.00377758
0.00402499
0.0042756
0.00452794
0.00478041
0.00503112
0.00527759
0.00551651
0.00574326
0.00595127
0.00613121
0.00626982
0.00634829
0.00634046
0.00621117
0.00591695
0.00541642
0.004707
0.00388894
0.00310492
0.00239147
0.00176891
0.00124346
0.000807815
0.000445876
0.000139599
0.00289709
0.00311719
0.00334704
0.00358458
0.00382804
0.00407584
0.0043265
0.00457855
0.00483034
0.00507988
0.00532458
0.00556094
0.00578407
0.00598705
0.00616007
0.00628924
0.006355
0.00633037
0.00617961
0.00585974
0.00533327
0.00460819
0.00379858
0.00302832
0.00233097
0.00172451
0.0012133
0.000789142
0.000436038
0.000136633
0.0029524
0.00317461
0.00340611
0.00364483
0.00388903
0.00413714
0.00438768
0.00463914
0.00488982
0.00513761
0.00537978
0.00561258
0.00583078
0.00602703
0.0061909
0.00630771
0.00635697
0.00631072
0.00613257
0.00578054
0.00522279
0.00448099
0.00368424
0.00293267
0.00225607
0.00166978
0.00117613
0.000766066
0.000423833
0.000132941
0.00301812
0.00324281
0.00347615
0.00371615
0.00396109
0.00420941
0.00445962
0.00471015
0.0049592
0.00520454
0.00544321
0.00567118
0.0058828
0.00607014
0.00622204
0.00632285
0.00635097
0.00627727
0.00606485
0.00567349
0.00507941
0.0043215
0.00354347
0.00281651
0.00216594
0.00160419
0.00113158
0.000738303
0.000409085
0.000128463
0.00309514
0.00332271
0.00355804
0.0037994
0.00404512
0.00429362
0.00454338
0.00479274
0.00503977
0.00528204
0.00551629
0.0057381
0.00594128
0.00611719
0.00625375
0.00633417
0.00633551
0.00622746
0.00597283
0.00553449
0.00490008
0.00412893
0.00337652
0.00268053
0.00206132
0.00152831
0.00107998
0.000706032
0.000391864
0.000123214
0.00318673
0.00341611
0.00365338
0.00389622
0.00414284
0.00439163
0.00464103
0.0048893
0.0051344
0.00537365
0.00560349
0.00581899
0.00601336
0.00617708
0.00629699
0.006355
0.00632684
0.00618121
0.00588165
0.00539671
0.00472967
0.00396491
0.00323149
0.00256029
0.00196778
0.00146007
0.00103342
0.00067684
0.000376258
0.000118449
0.00318805
0.00341736
0.00365472
0.00389769
0.00414442
0.0043933
0.00464276
0.00489106
0.00513616
0.0053754
0.0056052
0.00582067
0.00601501
0.00617874
0.00629872
0.00635688
0.00632897
0.00618373
0.00588468
0.00540029
0.00473364
0.0039688
0.00323507
0.0025634
0.00197034
0.00146206
0.00103488
0.00067782
0.000376815
0.000118628
0.00309579
0.00332344
0.0035588
0.00380019
0.00404592
0.00429442
0.00454415
0.00479347
0.00504045
0.00528266
0.00551686
0.00573862
0.00594175
0.00611761
0.00625411
0.00633444
0.00633563
0.00622735
0.00597238
0.00553362
0.00489881
0.00412753
0.00337532
0.00267957
0.00206058
0.00152778
0.00107962
0.000705807
0.000391743
0.000123175
0.0030187
0.0032434
0.00347675
0.00371676
0.00396171
0.00421005
0.00446027
0.00471081
0.00495988
0.00520523
0.00544393
0.0056719
0.00588351
0.00607082
0.00622263
0.00632329
0.00635115
0.00627709
0.00606414
0.00567213
0.00507743
0.00431922
0.00354144
0.00281482
0.00216462
0.00160322
0.00113091
0.000737886
0.000408861
0.000128392
0.00295294
0.00317514
0.00340663
0.00364536
0.00388958
0.00413772
0.0043883
0.0046398
0.00489052
0.00513835
0.00538056
0.00561338
0.00583158
0.00602778
0.00619156
0.00630821
0.00635721
0.00631059
0.00613194
0.00577929
0.00522092
0.00447877
0.00368223
0.00293098
0.00225475
0.00166881
0.00117547
0.000765652
0.000423612
0.000132872
0.00289759
0.00311766
0.0033475
0.00358505
0.00382853
0.00407636
0.00432706
0.00457916
0.00483099
0.00508056
0.0053253
0.00556168
0.0057848
0.00598774
0.00616068
0.00628971
0.00635526
0.00633034
0.00617916
0.00585877
0.00533177
0.00460636
0.00379689
0.00302689
0.00232983
0.00172367
0.00121273
0.000788787
0.000435849
0.000136574
0.00285211
0.00307038
0.00329878
0.00353525
0.003778
0.00402543
0.00427606
0.00452844
0.00478095
0.00503168
0.00527818
0.00551711
0.00574385
0.00595184
0.00613172
0.00627023
0.00634854
0.00634049
0.00621089
0.00591628
0.00541532
0.00470561
0.00388764
0.0031038
0.00239058
0.00176825
0.00124301
0.000807537
0.000445729
0.000139553
0.00281613
0.00303291
0.0032601
0.00349563
0.0037377
0.0039847
0.00423515
0.0044876
0.00474049
0.00499196
0.00523965
0.00548039
0.00570974
0.00592141
0.00610644
0.00625202
0.00633992
0.00634463
0.00623147
0.00595674
0.00547644
0.00478026
0.00395695
0.00316325
0.00243791
0.00180314
0.00126672
0.000822183
0.000453421
0.000141866
0.00278936
0.00300499
0.00323123
0.00346601
0.00370751
0.00395412
0.00420436
0.00445678
0.00470985
0.00496176
0.00521024
0.00545219
0.00568334
0.0058976
0.00608626
0.00623687
0.00633163
0.00634549
0.0062442
0.00598396
0.005519
0.00483346
0.00400697
0.00320658
0.00247265
0.00182884
0.00128419
0.000832962
0.000459068
0.00014356
0.00277163
0.00298646
0.00321204
0.0034463
0.00368739
0.00393371
0.00418376
0.00443612
0.00468927
0.00494143
0.00519037
0.00543308
0.00566536
0.00588126
0.00607225
0.00622608
0.00632525
0.00634504
0.00625144
0.00600065
0.00554584
0.0048676
0.00403938
0.00323487
0.00249545
0.00184576
0.0012957
0.000840052
0.000462776
0.00014467
0.00276279
0.00297722
0.00320247
0.00343645
0.00367733
0.00392349
0.00417344
0.00442576
0.00467893
0.0049312
0.00518036
0.00542343
0.00565626
0.00587295
0.00606507
0.00622048
0.00632181
0.00634451
0.0062547
0.00600858
0.0055588
0.00488427
0.0040553
0.00324884
0.00250674
0.00185414
0.00130141
0.000843568
0.000464612
0.00014522
0.00276279
0.00297722
0.00320247
0.00343645
0.00367733
0.00392349
0.00417344
0.00442575
0.00467893
0.0049312
0.00518036
0.00542343
0.00565626
0.00587295
0.00606507
0.00622048
0.00632181
0.00634451
0.0062547
0.00600858
0.0055588
0.00488427
0.0040553
0.00324884
0.00250674
0.00185414
0.00130141
0.000843568
0.000464612
0.00014522
0.00277163
0.00298646
0.00321204
0.0034463
0.00368739
0.00393371
0.00418376
0.00443612
0.00468927
0.00494143
0.00519037
0.00543308
0.00566536
0.00588126
0.00607225
0.00622608
0.00632525
0.00634504
0.00625144
0.00600065
0.00554584
0.0048676
0.00403938
0.00323487
0.00249545
0.00184576
0.0012957
0.000840052
0.000462776
0.00014467
0.00278936
0.00300499
0.00323123
0.00346601
0.00370751
0.00395412
0.00420436
0.00445678
0.00470985
0.00496176
0.00521024
0.00545219
0.00568334
0.0058976
0.00608626
0.00623687
0.00633163
0.00634549
0.0062442
0.00598396
0.005519
0.00483346
0.00400697
0.00320658
0.00247265
0.00182884
0.00128419
0.000832962
0.000459068
0.00014356
0.00281613
0.00303291
0.0032601
0.00349563
0.0037377
0.0039847
0.00423515
0.0044876
0.00474049
0.00499196
0.00523965
0.00548039
0.00570974
0.00592141
0.00610644
0.00625202
0.00633992
0.00634463
0.00623147
0.00595674
0.00547644
0.00478026
0.00395695
0.00316325
0.00243791
0.00180314
0.00126672
0.000822183
0.000453421
0.000141866
0.00285211
0.00307038
0.00329878
0.00353525
0.00377799
0.00402543
0.00427606
0.00452844
0.00478095
0.00503168
0.00527818
0.00551711
0.00574385
0.00595184
0.00613172
0.00627023
0.00634854
0.00634049
0.00621089
0.00591628
0.00541532
0.00470561
0.00388764
0.0031038
0.00239058
0.00176825
0.00124301
0.000807537
0.000445729
0.000139553
0.00289759
0.00311766
0.0033475