/*--------------------------------*- C++ -*----------------------------------*\
| =========                 |                                                 |
| \\      /  F ield         | OpenFOAM: The Open Source CFD Toolbox           |
|  \\    /   O peration     | Version:  2306                                  |
|   \\  /    A nd           | Website:  www.openfoam.com                      |
|    \\/     M anipulation  |                                                 |
\*---------------------------------------------------------------------------*/
FoamFile
{
    version     2.0;
    format      ascii;
    arch        "LSB;label=32;scalar=64";
    class       volScalarField;
    location    "12336";
    object      nu;
}
// * * * * * * * * * * * * * * * * * * * * * * * * * * * * * * * * * * * * * //

dimensions      [0 2 -1 0 0 0 0];

internalField   nonuniform List<scalar> 
2800
(
0.000340977
0.000349825
0.000356124
0.000361887
0.000366944
0.00037123
0.000374706
0.00037734
0.000379109
0.000379998
0.000379998
0.000379109
0.00037734
0.000374706
0.00037123
0.000366944
0.000361887
0.000356124
0.000349825
0.000340977
0.000349899
0.00035937
0.000367136
0.00037412
0.000380288
0.000385562
0.000389871
0.000393156
0.000395371
0.000396487
0.000396487
0.000395371
0.000393156
0.000389871
0.000385562
0.000380288
0.00037412
0.000367136
0.00035937
0.000349899
0.000356195
0.000367155
0.000376504
0.000384925
0.000392365
0.000398745
0.000403976
0.000407977
0.000410683
0.000412048
0.000412048
0.000410683
0.000407977
0.000403976
0.000398745
0.000392365
0.000384925
0.000376504
0.000367155
0.000356195
0.000361949
0.000374147
0.000384937
0.000394718
0.000403389
0.000410845
0.000416974
0.000421674
0.000424858
0.000426466
0.000426466
0.000424858
0.000421674
0.000416974
0.000410845
0.000403389
0.000394718
0.000384937
0.000374147
0.000361949
0.000366995
0.000380317
0.000392384
0.000403397
0.000413209
0.000421674
0.000428652
0.000434014
0.000437652
0.000439491
0.000439491
0.000437652
0.000434014
0.000428652
0.000421674
0.000413209
0.000403397
0.000392384
0.000380317
0.000366995
0.00037127
0.000385589
0.000398766
0.000410858
0.000421681
0.000431051
0.000438795
0.000444757
0.000448808
0.000450857
0.000450857
0.000448808
0.000444757
0.000438795
0.000431051
0.000421681
0.000410858
0.000398766
0.000385589
0.00037127
0.000374737
0.000389895
0.000403997
0.00041699
0.000428662
0.0004388
0.000447198
0.000453674
0.00045808
0.00046031
0.00046031
0.00045808
0.000453674
0.000447198
0.0004388
0.000428662
0.00041699
0.000403997
0.000389895
0.000374737
0.000377364
0.000393178
0.000407998
0.000421691
0.000434026
0.000444764
0.000453677
0.000460561
0.000465248
0.000467622
0.000467622
0.000465248
0.000460561
0.000453677
0.000444764
0.000434026
0.000421691
0.000407998
0.000393178
0.000377364
0.000379129
0.000395391
0.000410703
0.000424876
0.000437665
0.000448817
0.000458086
0.00046525
0.000470132
0.000472606
0.000472606
0.000470132
0.00046525
0.000458086
0.000448817
0.000437665
0.000424876
0.000410703
0.000395391
0.000379129
0.000380015
0.000396506
0.000412067
0.000426483
0.000439505
0.000450867
0.000460317
0.000467625
0.000472607
0.000475132
0.000475132
0.000472607
0.000467625
0.000460317
0.000450867
0.000439505
0.000426483
0.000412067
0.000396506
0.000380015
0.000380015
0.000396506
0.000412067
0.000426483
0.000439505
0.000450867
0.000460317
0.000467625
0.000472607
0.000475132
0.000475132
0.000472607
0.000467625
0.000460317
0.000450867
0.000439505
0.000426483
0.000412067
0.000396506
0.000380015
0.000379129
0.000395391
0.000410703
0.000424876
0.000437665
0.000448817
0.000458086
0.00046525
0.000470132
0.000472606
0.000472606
0.000470132
0.00046525
0.000458086
0.000448817
0.000437665
0.000424876
0.000410703
0.000395391
0.000379129
0.000377364
0.000393178
0.000407998
0.000421691
0.000434026
0.000444764
0.000453677
0.000460561
0.000465248
0.000467622
0.000467622
0.000465248
0.000460561
0.000453677
0.000444764
0.000434026
0.000421691
0.000407998
0.000393178
0.000377364
0.000374737
0.000389895
0.000403997
0.00041699
0.000428662
0.0004388
0.000447198
0.000453674
0.00045808
0.00046031
0.00046031
0.00045808
0.000453674
0.000447198
0.0004388
0.000428662
0.00041699
0.000403997
0.000389895
0.000374737
0.00037127
0.000385589
0.000398766
0.000410858
0.000421681
0.000431051
0.000438795
0.000444757
0.000448808
0.000450857
0.000450857
0.000448808
0.000444757
0.000438795
0.000431051
0.000421681
0.000410858
0.000398766
0.000385589
0.00037127
0.000366995
0.000380317
0.000392384
0.000403397
0.000413209
0.000421674
0.000428652
0.000434014
0.000437652
0.000439491
0.000439491
0.000437652
0.000434014
0.000428652
0.000421674
0.000413209
0.000403397
0.000392384
0.000380317
0.000366995
0.000361949
0.000374147
0.000384937
0.000394718
0.000403389
0.000410845
0.000416974
0.000421674
0.000424858
0.000426466
0.000426466
0.000424858
0.000421674
0.000416974
0.000410845
0.000403389
0.000394718
0.000384937
0.000374147
0.000361949
0.000356195
0.000367155
0.000376504
0.000384925
0.000392365
0.000398745
0.000403976
0.000407977
0.000410683
0.000412048
0.000412048
0.000410683
0.000407977
0.000403976
0.000398745
0.000392365
0.000384925
0.000376504
0.000367155
0.000356195
0.000349899
0.00035937
0.000367136
0.00037412
0.000380288
0.000385562
0.000389871
0.000393156
0.000395371
0.000396487
0.000396487
0.000395371
0.000393156
0.000389871
0.000385562
0.000380288
0.00037412
0.000367136
0.00035937
0.000349899
0.000340977
0.000349825
0.000356124
0.000361887
0.000366944
0.00037123
0.000374706
0.00037734
0.000379109
0.000379998
0.000379998
0.000379109
0.00037734
0.000374706
0.00037123
0.000366944
0.000361887
0.000356124
0.000349825
0.000340977
0.000334197
0.000319315
0.000306153
0.00029374
0.000282
0.000270854
0.000260225
0.000250041
0.000240234
0.00023074
0.000221498
0.000212448
0.000203528
0.000194675
0.000185822
0.000176898
0.000167834
0.00015858
0.000149179
0.00013995
0.000131778
0.000126066
0.000123274
0.000121624
0.000120516
0.000119853
0.000119568
0.000119573
0.000119763
0.000120116
0.000340216
0.000324989
0.000311456
0.000298705
0.000286661
0.000275244
0.000264376
0.000253982
0.000243991
0.000234338
0.000224958
0.00021579
0.000206769
0.000197832
0.000188909
0.000179927
0.000170811
0.000161497
0.000151984
0.000142492
0.00013372
0.000127058
0.000123838
0.000121996
0.000120752
0.000119987
0.000119631
0.000119596
0.00011977
0.000120119
0.000345234
0.000329882
0.000316041
0.000303007
0.000290704
0.000279053
0.000267975
0.000257393
0.000247234
0.000237431
0.00022792
0.000218636
0.000209517
0.000200498
0.00019151
0.000182481
0.000173332
0.000163993
0.000154436
0.000144803
0.000135679
0.00012839
0.000124378
0.000122235
0.000120869
0.000120021
0.000119611
0.000119549
0.000119717
0.000120073
0.000349645
0.000334185
0.000320076
0.00030679
0.000294255
0.000282394
0.000271126
0.000260374
0.000250065
0.00024013
0.000230501
0.000221117
0.000211912
0.000202823
0.00019378
0.000184709
0.000175531
0.00016617
0.000156578
0.000146842
0.000137448
0.000129629
0.000124908
0.000122489
0.000121009
0.000120081
0.000119618
0.000119527
0.000119687
0.000120047
0.000353467
0.000337905
0.000323563
0.000310057
0.000297321
0.000285277
0.000273846
0.000262948
0.000252509
0.000242458
0.00023273
0.000223259
0.00021398
0.000204828
0.000195734
0.000186623
0.000177416
0.000168031
0.000158407
0.000148592
0.000138991
0.000130738
0.000125407
0.000122746
0.000121162
0.000120161
0.000119648
0.000119529
0.00011968
0.000120042
0.000356687
0.000341036
0.000326496
0.000312806
0.0002999
0.000287703
0.000276134
0.000265114
0.000254566
0.00024442
0.000234606
0.000225061
0.000215718
0.000206512
0.000197372
0.000188224
0.000178988
0.000169578
0.000159925
0.000150049
0.00014029
0.000131692
0.000125853
0.000122987
0.000121313
0.000120249
0.000119691
0.000119547
0.000119689
0.000120052
0.00035929
0.000343565
0.000328866
0.000315026
0.000301984
0.000289664
0.000277984
0.000266865
0.000256229
0.000246005
0.000236123
0.000226516
0.00021712
0.000207868
0.000198689
0.000189509
0.000180245
0.000170813
0.000161135
0.000151212
0.000141337
0.000132472
0.000126229
0.000123198
0.000121451
0.000120334
0.000119739
0.000119573
0.000119706
0.000120068
0.000361259
0.000345477
0.000330657
0.000316705
0.000303561
0.000291148
0.000279384
0.000268191
0.000257488
0.000247205
0.00023727
0.000227616
0.000218179
0.00020889
0.000199681
0.000190474
0.000181189
0.000171738
0.00016204
0.000152083
0.000142125
0.000133066
0.000126522
0.000123366
0.000121563
0.000120405
0.000119781
0.000119598
0.000119724
0.000120085
0.00036258
0.00034676
0.00033186
0.000317832
0.000304619
0.000292144
0.000280325
0.000269081
0.000258334
0.00024801
0.000238039
0.000228354
0.000218888
0.000209575
0.000200344
0.000191119
0.000181819
0.000172354
0.000162643
0.000152663
0.000142651
0.000133466
0.000126722
0.000123483
0.000121642
0.000120457
0.000119813
0.000119618
0.000119739
0.0001201
0.000363243
0.000347404
0.000332463
0.000318398
0.000305151
0.000292644
0.000280797
0.000269528
0.000258758
0.000248414
0.000238425
0.000228724
0.000219244
0.000209918
0.000200676
0.000191442
0.000182133
0.000172662
0.000162943
0.000152953
0.000142915
0.000133667
0.000126823
0.000123543
0.000121683
0.000120483
0.00011983
0.000119629
0.000119747
0.000120108
0.000363243
0.000347404
0.000332463
0.000318398
0.000305151
0.000292644
0.000280797
0.000269528
0.000258758
0.000248414
0.000238425
0.000228724
0.000219244
0.000209918
0.000200676
0.000191442
0.000182133
0.000172662
0.000162943
0.000152953
0.000142915
0.000133667
0.000126823
0.000123543
0.000121683
0.000120483
0.00011983
0.000119629
0.000119747
0.000120108
0.00036258
0.00034676
0.00033186
0.000317832
0.000304619
0.000292144
0.000280325
0.000269081
0.000258334
0.00024801
0.000238039
0.000228354
0.000218888
0.000209575
0.000200344
0.000191119
0.000181819
0.000172354
0.000162643
0.000152663
0.000142651
0.000133466
0.000126722
0.000123483
0.000121642
0.000120457
0.000119813
0.000119618
0.000119739
0.0001201
0.000361259
0.000345477
0.000330657
0.000316705
0.000303561
0.000291148
0.000279384
0.000268191
0.000257488
0.000247205
0.00023727
0.000227616
0.000218179
0.00020889
0.000199681
0.000190474
0.000181189
0.000171738
0.00016204
0.000152083
0.000142125
0.000133066
0.000126522
0.000123366
0.000121563
0.000120405
0.000119781
0.000119598
0.000119724
0.000120085
0.00035929
0.000343565
0.000328866
0.000315026
0.000301984
0.000289664
0.000277984
0.000266865
0.000256229
0.000246005
0.000236123
0.000226516
0.00021712
0.000207868
0.000198689
0.000189509
0.000180245
0.000170813
0.000161135
0.000151212
0.000141337
0.000132472
0.000126229
0.000123198
0.00012145
0.000120334
0.000119739
0.000119573
0.000119706
0.000120068
0.000356687
0.000341036
0.000326496
0.000312806
0.0002999
0.000287703
0.000276134
0.000265114
0.000254566
0.00024442
0.000234606
0.000225061
0.000215718
0.000206512
0.000197372
0.000188224
0.000178988
0.000169578
0.000159925
0.000150049
0.00014029
0.000131692
0.000125853
0.000122987
0.000121313
0.000120249
0.000119691
0.000119547
0.000119689
0.000120052
0.000353467
0.000337905
0.000323563
0.000310057
0.000297321
0.000285277
0.000273846
0.000262948
0.000252509
0.000242458
0.00023273
0.000223259
0.00021398
0.000204828
0.000195734
0.000186623
0.000177416
0.000168031
0.000158407
0.000148592
0.000138991
0.000130738
0.000125407
0.000122746
0.000121162
0.000120161
0.000119648
0.000119529
0.00011968
0.000120042
0.000349645
0.000334185
0.000320076
0.00030679
0.000294255
0.000282394
0.000271126
0.000260374
0.000250065
0.00024013
0.000230501
0.000221117
0.000211912
0.000202823
0.00019378
0.000184709
0.000175531
0.00016617
0.000156578
0.000146842
0.000137448
0.000129629
0.000124908
0.000122489
0.000121009
0.000120081
0.000119618
0.000119527
0.000119687
0.000120047
0.000345234
0.000329882
0.000316041
0.000303007
0.000290704
0.000279053
0.000267975
0.000257393
0.000247234
0.000237431
0.00022792
0.000218636
0.000209517
0.000200498
0.00019151
0.000182481
0.000173332
0.000163993
0.000154436
0.000144803
0.000135679
0.00012839
0.000124378
0.000122235
0.000120869
0.000120021
0.000119611
0.000119549
0.000119717
0.000120073
0.000340216
0.000324989
0.000311456
0.000298705
0.000286661
0.000275244
0.000264376
0.000253982
0.000243991
0.000234338
0.000224958
0.00021579
0.000206769
0.000197832
0.000188909
0.000179927
0.000170811
0.000161497
0.000151984
0.000142492
0.00013372
0.000127058
0.000123838
0.000121996
0.000120752
0.000119987
0.000119631
0.000119596
0.00011977
0.000120119
0.000334197
0.000319315
0.000306153
0.00029374
0.000282
0.000270854
0.000260225
0.000250041
0.000240234
0.00023074
0.000221498
0.000212448
0.000203528
0.000194675
0.000185822
0.000176898
0.000167834
0.00015858
0.000149179
0.00013995
0.000131778
0.000126066
0.000123274
0.000121624
0.000120516
0.000119853
0.000119568
0.000119573
0.000119763
0.000120116
0.000334041
0.000319146
0.000305998
0.0002936
0.000281874
0.000270741
0.000260123
0.00024995
0.000240154
0.00023067
0.000221437
0.000212395
0.000203482
0.000194635
0.000185787
0.000176868
0.000167807
0.000158557
0.000149158
0.000139929
0.000131752
0.000126029
0.000123231
0.000121576
0.000120463
0.000119796
0.000119506
0.000119507
0.000119693
0.000120042
0.000340224
0.000324954
0.000311421
0.000298669
0.000286625
0.000275209
0.000264343
0.000253951
0.000243962
0.000234309
0.00022493
0.000215761
0.00020674
0.000197801
0.000188877
0.000179893
0.000170776
0.00016146
0.000151947
0.000142456
0.000133689
0.000127033
0.00012382
0.00012198
0.000120738
0.000119973
0.000119618
0.000119583
0.000119757
0.000120106
0.000345234
0.000329853
0.000316012
0.000302976
0.000290672
0.00027902
0.000267941
0.000257358
0.000247199
0.000237395
0.000227882
0.000218597
0.000209478
0.000200458
0.000191469
0.000182439
0.00017329
0.000163952
0.000154394
0.000144763
0.000135645
0.000128365
0.000124364
0.000122226
0.000120862
0.000120015
0.000119606
0.000119544
0.000119712
0.000120068
0.000349638
0.000334159
0.00032005
0.000306761
0.000294225
0.000282362
0.000271093
0.000260339
0.000250029
0.000240092
0.000230463
0.000221078
0.000211873
0.000202784
0.00019374
0.000184669
0.000175492
0.000166131
0.000156539
0.000146805
0.000137416
0.000129605
0.000124896
0.000122481
0.000121003
0.000120077
0.000119614
0.000119524
0.000119684
0.000120044
0.000353455
0.000337881
0.000323539
0.000310032
0.000297294
0.000285249
0.000273815
0.000262916
0.000252476
0.000242425
0.000232696
0.000223224
0.000213946
0.000204794
0.0001957
0.00018659
0.000177382
0.000167997
0.000158374
0.00014856
0.000138963
0.000130717
0.000125396
0.000122739
0.000121157
0.000120157
0.000119645
0.000119527
0.000119678
0.00012004
0.000356673
0.000341015
0.000326476
0.000312784
0.000299878
0.000287679
0.000276109
0.000265088
0.000254539
0.000244392
0.000234579
0.000225033
0.000215691
0.000206484
0.000197345
0.000188197
0.000178961
0.000169551
0.000159898
0.000150023
0.000140267
0.000131674
0.000125844
0.000122981
0.000121309
0.000120246
0.000119689
0.000119545
0.000119687
0.00012005
0.000359274
0.000343546
0.000328848
0.000315009
0.000301966
0.000289645
0.000277965
0.000266845
0.000256209
0.000245984
0.000236102
0.000226496
0.0002171
0.000207847
0.000198668
0.000189488
0.000180225
0.000170793
0.000161115
0.000151193
0.000141319
0.000132458
0.000126222
0.000123193
0.000121447
0.000120331
0.000119737
0.000119571
0.000119704
0.000120067
0.000361242
0.00034546
0.000330643
0.000316692
0.000303548
0.000291134
0.000279371
0.000268177
0.000257474
0.00024719
0.000237255
0.000227602
0.000218164
0.000208876
0.000199666
0.00019046
0.000181175
0.000171724
0.000162026
0.00015207
0.000142112
0.000133056
0.000126516
0.000123363
0.00012156
0.000120403
0.00011978
0.000119597
0.000119723
0.000120084
0.000362562
0.000346745
0.000331848
0.000317822
0.00030461
0.000292134
0.000280315
0.000269071
0.000258324
0.000248
0.000238029
0.000228344
0.000218878
0.000209565
0.000200334
0.000191109
0.000181809
0.000172344
0.000162633
0.000152654
0.000142643
0.000133459
0.000126718
0.000123481
0.00012164
0.000120455
0.000119812
0.000119617
0.000119738
0.000120099
0.000363224
0.00034739
0.000332453
0.00031839
0.000305143
0.000292637
0.00028079
0.000269521
0.000258751
0.000248407
0.000238418
0.000228717
0.000219236
0.00020991
0.000200668
0.000191434
0.000182126
0.000172654
0.000162936
0.000152945
0.000142908
0.000133661
0.00012682
0.000123541
0.000121681
0.000120482
0.000119829
0.000119628
0.000119747
0.000120107
0.000363224
0.00034739
0.000332453
0.00031839
0.000305143
0.000292637
0.00028079
0.000269521
0.000258751
0.000248407
0.000238418
0.000228717
0.000219236
0.00020991
0.000200668
0.000191434
0.000182126
0.000172654
0.000162936
0.000152945
0.000142908
0.000133661
0.00012682
0.000123541
0.000121681
0.000120482
0.000119829
0.000119628
0.000119747
0.000120107
0.000362562
0.000346745
0.000331848
0.000317822
0.00030461
0.000292134
0.000280315
0.000269071
0.000258324
0.000248
0.000238029
0.000228344
0.000218878
0.000209565
0.000200334
0.000191109
0.000181809
0.000172344
0.000162633
0.000152654
0.000142643
0.000133459
0.000126718
0.000123481
0.00012164
0.000120455
0.000119812
0.000119617
0.000119738
0.000120099
0.000361242
0.00034546
0.000330643
0.000316692
0.000303548
0.000291134
0.000279371
0.000268177
0.000257474
0.00024719
0.000237255
0.000227602
0.000218164
0.000208876
0.000199666
0.00019046
0.000181175
0.000171724
0.000162026
0.00015207
0.000142112
0.000133056
0.000126516
0.000123363
0.00012156
0.000120403
0.00011978
0.000119597
0.000119723
0.000120084
0.000359274
0.000343546
0.000328848
0.000315009
0.000301966
0.000289645
0.000277965
0.000266845
0.000256209
0.000245984
0.000236102
0.000226496
0.0002171
0.000207847
0.000198668
0.000189488
0.000180225
0.000170793
0.000161115
0.000151193
0.000141319
0.000132458
0.000126222
0.000123193
0.000121447
0.000120331
0.000119737
0.000119571
0.000119704
0.000120067
0.000356673
0.000341015
0.000326476
0.000312784
0.000299878
0.000287679
0.000276109
0.000265088
0.000254539
0.000244392
0.000234579
0.000225033
0.000215691
0.000206484
0.000197345
0.000188197
0.000178961
0.000169551
0.000159898
0.000150023
0.000140267
0.000131674
0.000125844
0.000122981
0.000121309
0.000120246
0.000119689
0.000119545
0.000119687
0.00012005
0.000353455
0.000337881
0.000323539
0.000310032
0.000297294
0.000285249
0.000273815
0.000262916
0.000252476
0.000242425
0.000232696
0.000223224
0.000213946
0.000204794
0.0001957
0.00018659
0.000177382
0.000167997
0.000158374
0.00014856
0.000138963
0.000130717
0.000125396
0.000122739
0.000121157
0.000120157
0.000119645
0.000119527
0.000119678
0.00012004
0.000349638
0.000334159
0.00032005
0.000306761
0.000294225
0.000282362
0.000271093
0.000260339
0.000250029
0.000240092
0.000230463
0.000221078
0.000211873
0.000202784
0.00019374
0.000184669
0.000175492
0.000166131
0.000156539
0.000146805
0.000137416
0.000129605
0.000124896
0.000122481
0.000121003
0.000120077
0.000119614
0.000119524
0.000119684
0.000120044
0.000345234
0.000329853
0.000316012
0.000302976
0.000290672
0.00027902
0.000267941
0.000257358
0.000247199
0.000237395
0.000227882
0.000218597
0.000209478
0.000200458
0.000191469
0.000182439
0.00017329
0.000163952
0.000154394
0.000144763
0.000135645
0.000128365
0.000124364
0.000122226
0.000120862
0.000120015
0.000119606
0.000119544
0.000119712
0.000120068
0.000340224
0.000324954
0.000311421
0.000298669
0.000286625
0.000275209
0.000264343
0.000253951
0.000243962
0.000234309
0.00022493
0.000215761
0.00020674
0.000197801
0.000188877
0.000179893
0.000170776
0.00016146
0.000151947
0.000142456
0.000133689
0.000127033
0.00012382
0.00012198
0.000120738
0.000119973
0.000119618
0.000119583
0.000119757
0.000120106
0.000334041
0.000319146
0.000305998
0.0002936
0.000281874
0.000270741
0.000260123
0.00024995
0.000240154
0.00023067
0.000221437
0.000212395
0.000203482
0.000194635
0.000185787
0.000176868
0.000167807
0.000158557
0.000149158
0.000139929
0.000131752
0.000126029
0.000123231
0.000121576
0.000120463
0.000119796
0.000119506
0.000119507
0.000119693
0.000120042
0.000334197
0.000319315
0.000306153
0.00029374
0.000282
0.000270854
0.000260225
0.000250041
0.000240234
0.00023074
0.000221498
0.000212448
0.000203528
0.000194675
0.000185822
0.000176898
0.000167834
0.00015858
0.000149179
0.00013995
0.000131778
0.000126066
0.000123274
0.000121624
0.000120516
0.000119853
0.000119568
0.000119573
0.000119763
0.000120116
0.000340216
0.000324989
0.000311456
0.000298705
0.000286661
0.000275244
0.000264376
0.000253982
0.000243991
0.000234338
0.000224958
0.00021579
0.000206769
0.000197832
0.000188909
0.000179927
0.000170811
0.000161497
0.000151984
0.000142492
0.00013372
0.000127058
0.000123838
0.000121996
0.000120752
0.000119987
0.000119631
0.000119596
0.00011977
0.000120119
0.000345234
0.000329882
0.000316041
0.000303007
0.000290704
0.000279053
0.000267975
0.000257393
0.000247234
0.000237431
0.00022792
0.000218636
0.000209517
0.000200498
0.00019151
0.000182481
0.000173332
0.000163993
0.000154436
0.000144803
0.000135679
0.00012839
0.000124378
0.000122235
0.000120869
0.000120021
0.000119611
0.000119549
0.000119717
0.000120073
0.000349645
0.000334185
0.000320076
0.00030679
0.000294255
0.000282394
0.000271126
0.000260374
0.000250065
0.00024013
0.000230501
0.000221117
0.000211912
0.000202823
0.00019378
0.000184709
0.000175531
0.00016617
0.000156578
0.000146842
0.000137448
0.000129629
0.000124908
0.000122489
0.000121009
0.000120081
0.000119618
0.000119527
0.000119687
0.000120047
0.000353467
0.000337905
0.000323563
0.000310057
0.000297321
0.000285277
0.000273846
0.000262948
0.000252509
0.000242458
0.00023273
0.000223259
0.00021398
0.000204828
0.000195734
0.000186623
0.000177416
0.000168031
0.000158407
0.000148592
0.000138991
0.000130738
0.000125407
0.000122746
0.000121162
0.000120161
0.000119648
0.000119529
0.00011968
0.000120042
0.000356687
0.000341036
0.000326496
0.000312806
0.0002999
0.000287703
0.000276134
0.000265114
0.000254566
0.00024442
0.000234606
0.000225061
0.000215718
0.000206512
0.000197372
0.000188224
0.000178988
0.000169578
0.000159925
0.000150049
0.00014029
0.000131692
0.000125853
0.000122987
0.000121313
0.000120249
0.000119691
0.000119547
0.000119689
0.000120052
0.00035929
0.000343565
0.000328866
0.000315026
0.000301984
0.000289664
0.000277984
0.000266865
0.000256229
0.000246005
0.000236123
0.000226516
0.00021712
0.000207868
0.000198689
0.000189509
0.000180245
0.000170813
0.000161135
0.000151212
0.000141337
0.000132472
0.000126229
0.000123198
0.000121451
0.000120334
0.000119739
0.000119573
0.000119706
0.000120068
0.000361259
0.000345477
0.000330657
0.000316705
0.000303561
0.000291148
0.000279384
0.000268191
0.000257488
0.000247205
0.00023727
0.000227616
0.000218179
0.00020889
0.000199681
0.000190474
0.000181189
0.000171738
0.00016204
0.000152083
0.000142125
0.000133066
0.000126522
0.000123366
0.000121563
0.000120405
0.000119781
0.000119598
0.000119724
0.000120085
0.00036258
0.00034676
0.00033186
0.000317832
0.000304619
0.000292144
0.000280325
0.000269081
0.000258334
0.00024801
0.000238039
0.000228354
0.000218888
0.000209575
0.000200344
0.000191119
0.000181819
0.000172354
0.000162643
0.000152663
0.000142651
0.000133466
0.000126722
0.000123483
0.000121642
0.000120457
0.000119813
0.000119618
0.000119739
0.0001201
0.000363243
0.000347404
0.000332463
0.000318398
0.000305151
0.000292644
0.000280797
0.000269528
0.000258758
0.000248414
0.000238425
0.000228724
0.000219244
0.000209918
0.000200676
0.000191442
0.000182133
0.000172662
0.000162943
0.000152953
0.000142915
0.000133667
0.000126823
0.000123543
0.000121683
0.000120483
0.00011983
0.000119629
0.000119747
0.000120108
0.000363243
0.000347404
0.000332463
0.000318398
0.000305151
0.000292644
0.000280797
0.000269528
0.000258758
0.000248414
0.000238425
0.000228724
0.000219244
0.000209918
0.000200676
0.000191442
0.000182133
0.000172662
0.000162943
0.000152953
0.000142915
0.000133667
0.000126823
0.000123543
0.000121683
0.000120483
0.00011983
0.000119629
0.000119747
0.000120108
0.00036258
0.00034676
0.00033186
0.000317832
0.000304619
0.000292144
0.000280325
0.000269081
0.000258334
0.00024801
0.000238039
0.000228354
0.000218888
0.000209575
0.000200344
0.000191119
0.000181819
0.000172354
0.000162643
0.000152663
0.000142651
0.000133466
0.000126722
0.000123483
0.000121642
0.000120457
0.000119813
0.000119618
0.000119739
0.0001201
0.000361259
0.000345477
0.000330657
0.000316705
0.000303561
0.000291148
0.000279384
0.000268191
0.000257488
0.000247205
0.00023727
0.000227616
0.000218179
0.00020889
0.000199681
0.000190474
0.000181189
0.000171738
0.00016204
0.000152083
0.000142125
0.000133066
0.000126522
0.000123366
0.000121563
0.000120405
0.000119781
0.000119598
0.000119724
0.000120085
0.00035929
0.000343565
0.000328866
0.000315026
0.000301984
0.000289664
0.000277984
0.000266865
0.000256229
0.000246005
0.000236123
0.000226516
0.00021712
0.000207868
0.000198689
0.000189509
0.000180245
0.000170813
0.000161135
0.000151212
0.000141337
0.000132472
0.000126229
0.000123198
0.000121451
0.000120334
0.000119739
0.000119573
0.000119706
0.000120068
0.000356687
0.000341036
0.000326496
0.000312806
0.0002999
0.000287703
0.000276134
0.000265114
0.000254566
0.00024442
0.000234606
0.000225061
0.000215718
0.000206512
0.000197372
0.000188224
0.000178988
0.000169578
0.000159925
0.000150049
0.00014029
0.000131692
0.000125853
0.000122987
0.000121313
0.000120249
0.000119691
0.000119547
0.000119689
0.000120052
0.000353467
0.000337905
0.000323563
0.000310057
0.000297321
0.000285277
0.000273846
0.000262948
0.000252509
0.000242458
0.00023273
0.000223259
0.00021398
0.000204828
0.000195734
0.000186623
0.000177416
0.000168031
0.000158407
0.000148592
0.000138991
0.000130738
0.000125407
0.000122746
0.000121162
0.000120161
0.000119648
0.000119529
0.00011968
0.000120042
0.000349645
0.000334185
0.000320076
0.00030679
0.000294255
0.000282394
0.000271126
0.000260374
0.000250065
0.00024013
0.000230501
0.000221117
0.000211912
0.000202823
0.00019378
0.000184709
0.000175531
0.00016617
0.000156578
0.000146842
0.000137448
0.000129629
0.000124908
0.000122489
0.000121009
0.000120081
0.000119618
0.000119527
0.000119687
0.000120047
0.000345234
0.000329882
0.000316041
0.000303007
0.000290704
0.000279053
0.000267975
0.000257393
0.000247234
0.000237431
0.00022792
0.000218636
0.000209517
0.000200498
0.00019151
0.000182481
0.000173332
0.000163993
0.000154436
0.000144803
0.000135679
0.00012839
0.000124378
0.000122235
0.000120869
0.000120021
0.000119611
0.000119549
0.000119717
0.000120073
0.000340216
0.000324989
0.000311456
0.000298705
0.000286661
0.000275244
0.000264376
0.000253982
0.000243991
0.000234338
0.000224958
0.00021579
0.000206769
0.000197832
0.000188909
0.000179927
0.000170811
0.000161497
0.000151984
0.000142492
0.00013372
0.000127058
0.000123838
0.000121996
0.000120752
0.000119987
0.000119631
0.000119596
0.00011977
0.000120119
0.000334197
0.000319315
0.000306153
0.00029374
0.000282
0.000270854
0.000260225
0.000250041
0.000240234
0.00023074
0.000221498
0.000212448
0.000203528
0.000194675
0.000185822
0.000176898
0.000167834
0.00015858
0.000149179
0.00013995
0.000131778
0.000126066
0.000123274
0.000121624
0.000120516
0.000119853
0.000119568
0.000119573
0.000119763
0.000120116
0.000334041
0.000319146
0.000305998
0.0002936
0.000281874
0.000270741
0.000260123
0.00024995
0.000240154
0.00023067
0.000221437
0.000212395
0.000203482
0.000194635
0.000185787
0.000176868
0.000167807
0.000158557
0.000149158
0.000139929
0.000131752
0.000126029
0.000123231
0.000121576
0.000120463
0.000119796
0.000119506
0.000119507
0.000119693
0.000120042
0.000340224
0.000324954
0.000311421
0.000298669
0.000286625
0.000275209
0.000264343
0.000253951
0.000243962
0.000234309
0.00022493
0.000215761
0.00020674
0.000197801
0.000188877
0.000179893
0.000170776
0.00016146
0.000151947
0.000142456
0.000133689
0.000127033
0.00012382
0.00012198
0.000120738
0.000119973
0.000119618
0.000119583
0.000119757
0.000120106
0.000345234
0.000329853
0.000316012
0.000302976
0.000290672
0.00027902
0.000267941
0.000257358
0.000247199
0.000237395
0.000227882
0.000218597
0.000209478
0.000200458
0.000191469
0.000182439
0.00017329
0.000163952
0.000154394
0.000144763
0.000135645
0.000128365
0.000124364
0.000122226
0.000120862
0.000120015
0.000119606
0.000119544
0.000119712
0.000120068
0.000349638
0.000334159
0.00032005
0.000306761
0.000294225
0.000282362
0.000271093
0.000260339
0.000250029
0.000240092
0.000230463
0.000221078
0.000211873
0.000202784
0.00019374
0.000184669
0.000175492
0.000166131
0.000156539
0.000146805
0.000137416
0.000129605
0.000124896
0.000122481
0.000121003
0.000120077
0.000119614
0.000119524
0.000119684
0.000120044
0.000353455
0.000337881
0.000323539
0.000310032
0.000297294
0.000285249
0.000273815
0.000262916
0.000252476
0.000242425
0.000232696
0.000223224
0.000213946
0.000204794
0.0001957
0.00018659
0.000177382
0.000167997
0.000158374
0.00014856
0.000138963
0.000130717
0.000125396
0.000122739
0.000121157
0.000120157
0.000119645
0.000119527
0.000119678
0.00012004
0.000356673
0.000341015
0.000326476
0.000312784
0.000299878
0.000287679
0.000276109
0.000265088
0.000254539
0.000244392
0.000234579
0.000225033
0.000215691
0.000206484
0.000197345
0.000188197
0.000178961
0.000169551
0.000159898
0.000150023
0.000140267
0.000131674
0.000125844
0.000122981
0.000121309
0.000120246
0.000119689
0.000119545
0.000119687
0.00012005
0.000359274
0.000343546
0.000328848
0.000315009
0.000301966
0.000289645
0.000277965
0.000266845
0.000256209
0.000245984
0.000236102
0.000226496
0.0002171
0.000207847
0.000198668
0.000189488
0.000180225
0.000170793
0.000161115
0.000151193
0.000141319
0.000132458
0.000126222
0.000123193
0.000121447
0.000120331
0.000119737
0.000119571
0.000119704
0.000120067
0.000361242
0.00034546
0.000330643
0.000316692
0.000303548
0.000291134
0.000279371
0.000268177
0.000257474
0.00024719
0.000237255
0.000227602
0.000218164
0.000208876
0.000199666
0.00019046
0.000181175
0.000171724
0.000162026
0.00015207
0.000142112
0.000133056
0.000126516
0.000123363
0.00012156
0.000120403
0.00011978
0.000119597
0.000119723
0.000120084
0.000362562
0.000346745
0.000331848
0.000317822
0.00030461
0.000292134
0.000280315
0.000269071
0.000258324