/*--------------------------------*- C++ -*----------------------------------*\
| =========                 |                                                 |
| \\      /  F ield         | OpenFOAM: The Open Source CFD Toolbox           |
|  \\    /   O peration     | Version:  2306                                  |
|   \\  /    A nd           | Website:  www.openfoam.com                      |
|    \\/     M anipulation  |                                                 |
\*---------------------------------------------------------------------------*/
FoamFile
{
    version     2.0;
    format      ascii;
    arch        "LSB;label=32;scalar=64";
    class       volScalarField;
    location    "12336";
    object      nun;
}
// * * * * * * * * * * * * * * * * * * * * * * * * * * * * * * * * * * * * * //

dimensions      [0 2 -1 0 0 0 0];

internalField   nonuniform List<scalar> 
2800
(
-6.15844e-05
-6.49889e-05
-6.64529e-05
-6.78622e-05
-6.91108e-05
-7.01723e-05
-7.1034e-05
-7.16876e-05
-7.21268e-05
-7.23475e-05
-7.23475e-05
-7.21268e-05
-7.16876e-05
-7.1034e-05
-7.01723e-05
-6.91108e-05
-6.78622e-05
-6.64529e-05
-6.49889e-05
-6.15844e-05
-6.5033e-05
-6.77375e-05
-6.94657e-05
-7.10232e-05
-7.24159e-05
-7.36186e-05
-7.46081e-05
-7.53662e-05
-7.58793e-05
-7.61382e-05
-7.61382e-05
-7.58793e-05
-7.53662e-05
-7.46081e-05
-7.36186e-05
-7.24159e-05
-7.10232e-05
-6.94657e-05
-6.77375e-05
-6.5033e-05
-6.64921e-05
-6.94711e-05
-7.15919e-05
-7.3502e-05
-7.51994e-05
-7.6666e-05
-7.78769e-05
-7.88083e-05
-7.94405e-05
-7.97602e-05
-7.97602e-05
-7.94405e-05
-7.88083e-05
-7.78769e-05
-7.6666e-05
-7.51994e-05
-7.3502e-05
-7.15919e-05
-6.94711e-05
-6.64921e-05
-6.78939e-05
-7.10308e-05
-7.35055e-05
-7.57531e-05
-7.77553e-05
-7.94881e-05
-8.09222e-05
-8.2028e-05
-8.27804e-05
-8.31613e-05
-8.31613e-05
-8.27804e-05
-8.2028e-05
-8.09222e-05
-7.94881e-05
-7.77553e-05
-7.57531e-05
-7.35055e-05
-7.10308e-05
-6.78939e-05
-6.91353e-05
-7.24239e-05
-7.52046e-05
-7.77576e-05
-8.00469e-05
-8.2036e-05
-8.36869e-05
-8.49629e-05
-8.58327e-05
-8.62736e-05
-8.62736e-05
-8.58327e-05
-8.49629e-05
-8.36869e-05
-8.2036e-05
-8.00469e-05
-7.77576e-05
-7.52046e-05
-7.24239e-05
-6.91353e-05
-7.01904e-05
-7.36261e-05
-7.66718e-05
-7.94918e-05
-8.20377e-05
-8.42604e-05
-8.61115e-05
-8.75457e-05
-8.8525e-05
-8.90219e-05
-8.90219e-05
-8.8525e-05
-8.75457e-05
-8.61115e-05
-8.42604e-05
-8.20377e-05
-7.94918e-05
-7.66718e-05
-7.36261e-05
-7.01904e-05
-7.10468e-05
-7.46147e-05
-7.78827e-05
-8.09265e-05
-8.36896e-05
-8.61127e-05
-8.81373e-05
-8.97097e-05
-9.0785e-05
-9.13311e-05
-9.13311e-05
-9.0785e-05
-8.97097e-05
-8.81373e-05
-8.61127e-05
-8.36896e-05
-8.09265e-05
-7.78827e-05
-7.46147e-05
-7.10468e-05
-7.16962e-05
-7.5372e-05
-7.88137e-05
-8.20325e-05
-8.49662e-05
-8.75478e-05
-8.97106e-05
-9.13937e-05
-9.25462e-05
-9.3132e-05
-9.3132e-05
-9.25462e-05
-9.13937e-05
-8.97106e-05
-8.75478e-05
-8.49662e-05
-8.20325e-05
-7.88137e-05
-7.5372e-05
-7.16962e-05
-7.21326e-05
-7.58845e-05
-7.94456e-05
-8.27849e-05
-8.58363e-05
-8.85276e-05
-9.07866e-05
-9.25469e-05
-9.37535e-05
-9.4367e-05
-9.4367e-05
-9.37535e-05
-9.25469e-05
-9.07866e-05
-8.85276e-05
-8.58363e-05
-8.27849e-05
-7.94456e-05
-7.58845e-05
-7.21325e-05
-7.23518e-05
-7.6143e-05
-7.9765e-05
-8.31658e-05
-8.62773e-05
-8.90247e-05
-9.13329e-05
-9.31329e-05
-9.43673e-05
-9.49952e-05
-9.49952e-05
-9.43673e-05
-9.31329e-05
-9.13329e-05
-8.90247e-05
-8.62773e-05
-8.31658e-05
-7.9765e-05
-7.6143e-05
-7.23518e-05
-7.23518e-05
-7.6143e-05
-7.9765e-05
-8.31658e-05
-8.62773e-05
-8.90247e-05
-9.13329e-05
-9.31329e-05
-9.43673e-05
-9.49952e-05
-9.49952e-05
-9.43673e-05
-9.31329e-05
-9.13329e-05
-8.90247e-05
-8.62773e-05
-8.31658e-05
-7.9765e-05
-7.6143e-05
-7.23518e-05
-7.21325e-05
-7.58845e-05
-7.94456e-05
-8.27849e-05
-8.58363e-05
-8.85276e-05
-9.07866e-05
-9.25469e-05
-9.37535e-05
-9.4367e-05
-9.4367e-05
-9.37535e-05
-9.25469e-05
-9.07866e-05
-8.85276e-05
-8.58363e-05
-8.27849e-05
-7.94456e-05
-7.58845e-05
-7.21325e-05
-7.16962e-05
-7.5372e-05
-7.88137e-05
-8.20325e-05
-8.49662e-05
-8.75478e-05
-8.97106e-05
-9.13937e-05
-9.25462e-05
-9.3132e-05
-9.3132e-05
-9.25462e-05
-9.13937e-05
-8.97106e-05
-8.75478e-05
-8.49662e-05
-8.20325e-05
-7.88137e-05
-7.5372e-05
-7.16962e-05
-7.10468e-05
-7.46147e-05
-7.78827e-05
-8.09265e-05
-8.36896e-05
-8.61127e-05
-8.81373e-05
-8.97097e-05
-9.0785e-05
-9.13311e-05
-9.13311e-05
-9.0785e-05
-8.97097e-05
-8.81373e-05
-8.61127e-05
-8.36896e-05
-8.09265e-05
-7.78827e-05
-7.46147e-05
-7.10468e-05
-7.01904e-05
-7.36261e-05
-7.66718e-05
-7.94918e-05
-8.20377e-05
-8.42604e-05
-8.61115e-05
-8.75457e-05
-8.8525e-05
-8.90219e-05
-8.90219e-05
-8.8525e-05
-8.75457e-05
-8.61115e-05
-8.42604e-05
-8.20377e-05
-7.94918e-05
-7.66718e-05
-7.36261e-05
-7.01904e-05
-6.91353e-05
-7.24239e-05
-7.52046e-05
-7.77576e-05
-8.00469e-05
-8.2036e-05
-8.36869e-05
-8.49629e-05
-8.58327e-05
-8.62736e-05
-8.62736e-05
-8.58327e-05
-8.49629e-05
-8.36869e-05
-8.2036e-05
-8.00469e-05
-7.77576e-05
-7.52046e-05
-7.24239e-05
-6.91353e-05
-6.78939e-05
-7.10308e-05
-7.35055e-05
-7.5753e-05
-7.77553e-05
-7.94881e-05
-8.09222e-05
-8.2028e-05
-8.27804e-05
-8.31613e-05
-8.31613e-05
-8.27804e-05
-8.2028e-05
-8.09222e-05
-7.94881e-05
-7.77553e-05
-7.5753e-05
-7.35055e-05
-7.10308e-05
-6.78939e-05
-6.64921e-05
-6.94711e-05
-7.15919e-05
-7.3502e-05
-7.51994e-05
-7.6666e-05
-7.78769e-05
-7.88083e-05
-7.94405e-05
-7.97602e-05
-7.97602e-05
-7.94405e-05
-7.88083e-05
-7.78769e-05
-7.6666e-05
-7.51994e-05
-7.3502e-05
-7.15919e-05
-6.94711e-05
-6.64921e-05
-6.5033e-05
-6.77375e-05
-6.94657e-05
-7.10232e-05
-7.24159e-05
-7.36186e-05
-7.46081e-05
-7.53662e-05
-7.58793e-05
-7.61382e-05
-7.61382e-05
-7.58793e-05
-7.53662e-05
-7.46081e-05
-7.36186e-05
-7.24159e-05
-7.10232e-05
-6.94657e-05
-6.77375e-05
-6.5033e-05
-6.15844e-05
-6.49889e-05
-6.64529e-05
-6.78622e-05
-6.91108e-05
-7.01723e-05
-7.1034e-05
-7.16876e-05
-7.21268e-05
-7.23475e-05
-7.23475e-05
-7.21268e-05
-7.16876e-05
-7.1034e-05
-7.01723e-05
-6.91108e-05
-6.78622e-05
-6.64529e-05
-6.49889e-05
-6.15844e-05
-6.25574e-05
-5.86395e-05
-5.568e-05
-5.28732e-05
-5.01891e-05
-4.75999e-05
-4.50792e-05
-4.26016e-05
-4.01418e-05
-3.76746e-05
-3.51745e-05
-3.26157e-05
-2.99731e-05
-2.72247e-05
-2.43554e-05
-2.1365e-05
-1.82794e-05
-1.5168e-05
-1.21663e-05
-9.48385e-06
-7.34605e-06
-5.70589e-06
-4.14713e-06
-3.03008e-06
-2.18824e-06
-1.55917e-06
-1.09085e-06
-7.39371e-07
-4.74567e-07
-2.82153e-07
-6.39405e-05
-5.99884e-05
-5.69403e-05
-5.4053e-05
-5.13009e-05
-4.86567e-05
-4.60933e-05
-4.35842e-05
-4.11033e-05
-3.86247e-05
-3.61219e-05
-3.3568e-05
-3.09365e-05
-2.82026e-05
-2.53469e-05
-2.23622e-05
-1.9264e-05
-1.61069e-05
-1.30085e-05
-1.01677e-05
-7.81796e-06
-6.12984e-06
-4.42789e-06
-3.22163e-06
-2.31505e-06
-1.63936e-06
-1.13901e-06
-7.66339e-07
-4.87881e-07
-2.87344e-07
-6.49447e-05
-6.10757e-05
-5.7961e-05
-5.50186e-05
-5.22198e-05
-4.9537e-05
-4.69428e-05
-4.44104e-05
-4.19137e-05
-3.94264e-05
-3.69221e-05
-3.43735e-05
-3.17537e-05
-2.90363e-05
-2.61994e-05
-2.32308e-05
-2.01375e-05
-1.69619e-05
-1.38035e-05
-1.08456e-05
-8.33336e-06
-6.47828e-06
-4.76517e-06
-3.43726e-06
-2.45795e-06
-1.73078e-06
-1.19496e-06
-7.9864e-07
-5.04675e-07
-2.94585e-07
-6.58201e-05
-6.20321e-05
-5.8861e-05
-5.58683e-05
-5.30265e-05
-5.03077e-05
-4.76844e-05
-4.51298e-05
-4.26174e-05
-4.0121e-05
-3.76141e-05
-3.50692e-05
-3.24589e-05
-2.97558e-05
-2.69357e-05
-2.39824e-05
-2.08963e-05
-1.77095e-05
-1.45069e-05
-1.14564e-05
-8.80577e-06
-6.79711e-06
-5.06739e-06
-3.62859e-06
-2.58428e-06
-1.811e-06
-1.24346e-06
-8.26167e-07
-5.18649e-07
-3.0035e-07
-6.65809e-05
-6.28592e-05
-5.96389e-05
-5.6602e-05
-5.37219e-05
-5.0971e-05
-4.83216e-05
-4.57468e-05
-4.322e-05
-4.07148e-05
-3.82045e-05
-3.56615e-05
-3.30579e-05
-3.03656e-05
-2.75585e-05
-2.46175e-05
-2.15379e-05
-1.83435e-05
-1.51079e-05
-1.1985e-05
-9.22057e-06
-7.07697e-06
-5.32799e-06
-3.79239e-06
-2.69214e-06
-1.87905e-06
-1.28413e-06
-8.48864e-07
-5.29889e-07
-3.0477e-07
-6.72254e-05
-6.35563e-05
-6.02935e-05
-5.72187e-05
-5.43059e-05
-5.15274e-05
-4.88556e-05
-4.62632e-05
-4.37235e-05
-4.121e-05
-3.86958e-05
-3.61532e-05
-3.35538e-05
-3.08689e-05
-2.80713e-05
-2.51395e-05
-2.2065e-05
-1.88654e-05
-1.56052e-05
-1.24269e-05
-9.57149e-06
-7.314e-06
-5.54547e-06
-3.92843e-06
-2.78158e-06
-1.93521e-06
-1.31739e-06
-8.67157e-07
-5.38753e-07
-3.08103e-07
-6.77489e-05
-6.41201e-05
-6.08224e-05
-5.77165e-05
-5.47769e-05
-5.19758e-05
-4.92855e-05
-4.66785e-05
-4.41279e-05
-4.1607e-05
-3.90888e-05
-3.65454e-05
-3.39484e-05
-3.12684e-05
-2.84774e-05
-2.55522e-05
-2.24815e-05
-1.92783e-05
-1.60001e-05
-1.27804e-05
-9.85496e-06
-7.50583e-06
-5.71942e-06
-4.03691e-06
-2.85284e-06
-1.9798e-06
-1.34361e-06
-8.81413e-07
-5.45537e-07
-3.10556e-07
-6.81463e-05
-6.4547e-05
-6.12226e-05
-5.8093e-05
-5.51328e-05
-5.23145e-05
-4.96099e-05
-4.69916e-05
-4.44324e-05
-4.19055e-05
-3.93837e-05
-3.68392e-05
-3.42432e-05
-3.15662e-05
-2.87796e-05
-2.58589e-05
-2.27909e-05
-1.95851e-05
-1.62943e-05
-1.30452e-05
-1.00689e-05
-7.65088e-06
-5.84978e-06
-4.11806e-06
-2.90614e-06
-2.01307e-06
-1.36307e-06
-8.91903e-07
-5.5046e-07
-3.12281e-07
-6.84136e-05
-6.48337e-05
-6.14912e-05
-5.83456e-05
-5.53716e-05
-5.25416e-05
-4.98273e-05
-4.72012e-05
-4.46361e-05
-4.21049e-05
-3.95804e-05
-3.70348e-05
-3.44392e-05
-3.17639e-05
-2.89799e-05
-2.6062e-05
-2.29956e-05
-1.97883e-05
-1.64895e-05
-1.32215e-05
-1.0212e-05
-7.7481e-06
-5.93662e-06
-4.17206e-06
-2.9416e-06
-2.03518e-06
-1.37595e-06
-8.98806e-07
-5.53668e-07
-3.1338e-07
-6.8548e-05
-6.49777e-05
-6.16261e-05
-5.84724e-05
-5.54915e-05
-5.26555e-05
-4.99364e-05
-4.73064e-05
-4.47381e-05
-4.22047e-05
-3.96788e-05
-3.71326e-05
-3.45371e-05
-3.18625e-05
-2.90797e-05
-2.61632e-05
-2.30976e-05
-1.98895e-05
-1.65867e-05
-1.33095e-05
-1.02838e-05
-7.79686e-06
-5.98001e-06
-4.19904e-06
-2.95932e-06
-2.04622e-06
-1.38237e-06
-9.02233e-07
-5.5525e-07
-3.13914e-07
-6.8548e-05
-6.49777e-05
-6.16261e-05
-5.84724e-05
-5.54915e-05
-5.26555e-05
-4.99364e-05
-4.73064e-05
-4.47381e-05
-4.22047e-05
-3.96788e-05
-3.71326e-05
-3.45371e-05
-3.18625e-05
-2.90797e-05
-2.61632e-05
-2.30976e-05
-1.98895e-05
-1.65867e-05
-1.33095e-05
-1.02838e-05
-7.79686e-06
-5.98001e-06
-4.19904e-06
-2.95932e-06
-2.04622e-06
-1.38237e-06
-9.02233e-07
-5.5525e-07
-3.13914e-07
-6.84136e-05
-6.48337e-05
-6.14912e-05
-5.83456e-05
-5.53716e-05
-5.25416e-05
-4.98273e-05
-4.72012e-05
-4.46361e-05
-4.21049e-05
-3.95804e-05
-3.70348e-05
-3.44392e-05
-3.17639e-05
-2.89799e-05
-2.6062e-05
-2.29956e-05
-1.97883e-05
-1.64895e-05
-1.32215e-05
-1.0212e-05
-7.7481e-06
-5.93662e-06
-4.17206e-06
-2.9416e-06
-2.03518e-06
-1.37595e-06
-8.98806e-07
-5.53668e-07
-3.1338e-07
-6.81463e-05
-6.4547e-05
-6.12226e-05
-5.8093e-05
-5.51328e-05
-5.23145e-05
-4.96099e-05
-4.69916e-05
-4.44324e-05
-4.19055e-05
-3.93837e-05
-3.68392e-05
-3.42432e-05
-3.15662e-05
-2.87796e-05
-2.58589e-05
-2.27909e-05
-1.95851e-05
-1.62943e-05
-1.30452e-05
-1.00689e-05
-7.65088e-06
-5.84978e-06
-4.11806e-06
-2.90614e-06
-2.01307e-06
-1.36307e-06
-8.91903e-07
-5.5046e-07
-3.12281e-07
-6.77489e-05
-6.41201e-05
-6.08224e-05
-5.77165e-05
-5.47769e-05
-5.19758e-05
-4.92855e-05
-4.66785e-05
-4.41279e-05
-4.1607e-05
-3.90888e-05
-3.65454e-05
-3.39484e-05
-3.12684e-05
-2.84774e-05
-2.55522e-05
-2.24815e-05
-1.92783e-05
-1.60001e-05
-1.27804e-05
-9.85496e-06
-7.50583e-06
-5.71942e-06
-4.03691e-06
-2.85284e-06
-1.9798e-06
-1.34361e-06
-8.81413e-07
-5.45537e-07
-3.10556e-07
-6.72254e-05
-6.35563e-05
-6.02935e-05
-5.72187e-05
-5.43059e-05
-5.15274e-05
-4.88556e-05
-4.62632e-05
-4.37235e-05
-4.121e-05
-3.86958e-05
-3.61532e-05
-3.35538e-05
-3.08689e-05
-2.80713e-05
-2.51395e-05
-2.2065e-05
-1.88654e-05
-1.56052e-05
-1.24269e-05
-9.57149e-06
-7.314e-06
-5.54547e-06
-3.92843e-06
-2.78158e-06
-1.93521e-06
-1.31739e-06
-8.67157e-07
-5.38753e-07
-3.08103e-07
-6.65809e-05
-6.28592e-05
-5.96389e-05
-5.6602e-05
-5.37219e-05
-5.0971e-05
-4.83216e-05
-4.57468e-05
-4.322e-05
-4.07148e-05
-3.82045e-05
-3.56615e-05
-3.30579e-05
-3.03656e-05
-2.75585e-05
-2.46175e-05
-2.15379e-05
-1.83435e-05
-1.51079e-05
-1.1985e-05
-9.22057e-06
-7.07697e-06
-5.32799e-06
-3.79239e-06
-2.69214e-06
-1.87905e-06
-1.28413e-06
-8.48864e-07
-5.29889e-07
-3.0477e-07
-6.58201e-05
-6.20321e-05
-5.8861e-05
-5.58683e-05
-5.30265e-05
-5.03077e-05
-4.76844e-05
-4.51298e-05
-4.26174e-05
-4.0121e-05
-3.76141e-05
-3.50692e-05
-3.24589e-05
-2.97558e-05
-2.69357e-05
-2.39824e-05
-2.08963e-05
-1.77095e-05
-1.45069e-05
-1.14564e-05
-8.80577e-06
-6.79711e-06
-5.06739e-06
-3.62859e-06
-2.58428e-06
-1.811e-06
-1.24346e-06
-8.26167e-07
-5.18649e-07
-3.0035e-07
-6.49447e-05
-6.10757e-05
-5.7961e-05
-5.50186e-05
-5.22198e-05
-4.9537e-05
-4.69428e-05
-4.44104e-05
-4.19137e-05
-3.94264e-05
-3.69221e-05
-3.43735e-05
-3.17537e-05
-2.90363e-05
-2.61994e-05
-2.32308e-05
-2.01375e-05
-1.69619e-05
-1.38035e-05
-1.08456e-05
-8.33336e-06
-6.47828e-06
-4.76517e-06
-3.43726e-06
-2.45795e-06
-1.73078e-06
-1.19496e-06
-7.9864e-07
-5.04675e-07
-2.94585e-07
-6.39405e-05
-5.99884e-05
-5.69403e-05
-5.4053e-05
-5.13009e-05
-4.86567e-05
-4.60933e-05
-4.35842e-05
-4.11033e-05
-3.86247e-05
-3.61219e-05
-3.3568e-05
-3.09365e-05
-2.82026e-05
-2.53469e-05
-2.23622e-05
-1.9264e-05
-1.61069e-05
-1.30085e-05
-1.01677e-05
-7.81796e-06
-6.12984e-06
-4.42789e-06
-3.22163e-06
-2.31505e-06
-1.63936e-06
-1.13901e-06
-7.66339e-07
-4.87881e-07
-2.87344e-07
-6.25574e-05
-5.86395e-05
-5.568e-05
-5.28732e-05
-5.01891e-05
-4.75999e-05
-4.50792e-05
-4.26016e-05
-4.01418e-05
-3.76746e-05
-3.51745e-05
-3.26157e-05
-2.99731e-05
-2.72247e-05
-2.43554e-05
-2.1365e-05
-1.82794e-05
-1.5168e-05
-1.21663e-05
-9.48385e-06
-7.34605e-06
-5.70589e-06
-4.14713e-06
-3.03008e-06
-2.18824e-06
-1.55917e-06
-1.09085e-06
-7.39371e-07
-4.74567e-07
-2.82153e-07
-6.24792e-05
-5.85435e-05
-5.5595e-05
-5.28004e-05
-5.01273e-05
-4.75477e-05
-4.50353e-05
-4.25648e-05
-4.01113e-05
-3.76496e-05
-3.51543e-05
-3.25997e-05
-2.99609e-05
-2.72158e-05
-2.43494e-05
-2.13616e-05
-1.82782e-05
-1.51685e-05
-1.21679e-05
-9.48567e-06
-7.34718e-06
-5.70786e-06
-4.14831e-06
-3.03084e-06
-2.18866e-06
-1.55933e-06
-1.09084e-06
-7.39265e-07
-4.74428e-07
-2.82025e-07
-6.39751e-05
-5.99873e-05
-5.69382e-05
-5.40495e-05
-5.12968e-05
-4.86525e-05
-4.6089e-05
-4.35799e-05
-4.10989e-05
-3.86199e-05
-3.61166e-05
-3.35622e-05
-3.09299e-05
-2.81952e-05
-2.53387e-05
-2.23532e-05
-1.92545e-05
-1.60974e-05
-1.29995e-05
-1.016e-05
-7.81208e-06
-6.12574e-06
-4.42403e-06
-3.21904e-06
-2.31327e-06
-1.63817e-06
-1.13823e-06
-7.65861e-07
-4.87608e-07
-2.87205e-07
-6.4968e-05
-6.10735e-05
-5.79579e-05
-5.50143e-05
-5.22146e-05
-4.95311e-05
-4.69362e-05
-4.44032e-05
-4.19058e-05
-3.94179e-05
-3.69128e-05
-3.43636e-05
-3.1743e-05
-2.9025e-05
-2.61876e-05
-2.32184e-05
-2.0125e-05
-1.69495e-05
-1.37919e-05
-1.08356e-05
-8.32566e-06
-6.47309e-06
-4.76023e-06
-3.43405e-06
-2.45579e-06
-1.72938e-06
-1.19408e-06
-7.98125e-07
-5.04399e-07
-2.94459e-07
-6.58355e-05
-6.20292e-05
-5.88573e-05
-5.58636e-05
-5.30208e-05
-5.03012e-05
-4.76771e-05
-4.51218e-05
-4.26088e-05
-4.01118e-05
-3.76043e-05
-3.5059e-05
-3.24482e-05
-2.97446e-05
-2.69241e-05
-2.39704e-05
-2.08842e-05
-1.76975e-05
-1.44956e-05
-1.14464e-05
-8.79799e-06
-6.79189e-06
-5.0625e-06
-3.62547e-06
-2.58221e-06
-1.80968e-06
-1.24266e-06
-8.25711e-07
-5.18417e-07
-3.00254e-07
-6.65901e-05
-6.28559e-05
-5.9635e-05
-5.65974e-05
-5.37165e-05
-5.09648e-05
-4.83148e-05
-4.57395e-05
-4.32122e-05
-4.07065e-05
-3.81958e-05
-3.56525e-05
-3.30486e-05
-3.03559e-05
-2.75485e-05
-2.46072e-05
-2.15274e-05
-1.83331e-05
-1.5098e-05
-1.19762e-05
-9.21361e-06
-7.0723e-06
-5.32369e-06
-3.78968e-06
-2.69035e-06
-1.87792e-06
-1.28346e-06
-8.48492e-07
-5.29707e-07
-3.047e-07
-6.72299e-05
-6.35528e-05
-6.02898e-05
-5.72145e-05
-5.43011e-05
-5.15221e-05
-4.88498e-05
-4.62571e-05
-4.37171e-05
-4.12033e-05
-3.86888e-05
-3.61459e-05
-3.35463e-05
-3.08611e-05
-2.80634e-05
-2.51314e-05
-2.20567e-05
-1.88572e-05
-1.55973e-05
-1.24198e-05
-9.5658e-06
-7.31018e-06
-5.542e-06
-3.92627e-06
-2.78016e-06
-1.93432e-06
-1.31686e-06
-8.66871e-07
-5.38617e-07
-3.08054e-07
-6.77498e-05
-6.41167e-05
-6.08191e-05
-5.77131e-05
-5.47731e-05
-5.19717e-05
-4.92811e-05
-4.66739e-05
-4.41231e-05
-4.1602e-05
-3.90836e-05
-3.654e-05
-3.39428e-05
-3.12626e-05
-2.84715e-05
-2.55462e-05
-2.24754e-05
-1.92722e-05
-1.59942e-05
-1.27751e-05
-9.85067e-06
-7.50293e-06
-5.71683e-06
-4.03531e-06
-2.85179e-06
-1.97914e-06
-1.34322e-06
-8.81207e-07
-5.45442e-07
-3.10523e-07
-6.81448e-05
-6.45439e-05
-6.12198e-05
-5.80903e-05
-5.513e-05
-5.23115e-05
-4.96068e-05
-4.69883e-05
-4.4429e-05
-4.19019e-05
-3.938e-05
-3.68354e-05
-3.42393e-05
-3.15622e-05
-2.87755e-05
-2.58547e-05
-2.27866e-05
-1.95809e-05
-1.62902e-05
-1.30415e-05
-1.00659e-05
-7.64883e-06
-5.84797e-06
-4.11695e-06
-2.90541e-06
-2.01262e-06
-1.3628e-06
-8.91762e-07
-5.50396e-07
-3.1226e-07
-6.84105e-05
-6.48308e-05
-6.14888e-05
-5.83435e-05
-5.53695e-05
-5.25395e-05
-4.98252e-05
-4.7199e-05
-4.46337e-05
-4.21024e-05
-3.95779e-05
-3.70322e-05
-3.44365e-05
-3.17611e-05
-2.89771e-05
-2.60591e-05
-2.29927e-05
-1.97854e-05
-1.64867e-05
-1.32189e-05
-1.021e-05
-7.74669e-06
-5.93539e-06
-4.17131e-06
-2.94111e-06
-2.03488e-06
-1.37578e-06
-8.98713e-07
-5.53625e-07
-3.13366e-07
-6.85441e-05
-6.49749e-05
-6.1624e-05
-5.84706e-05
-5.54898e-05
-5.26539e-05
-4.99347e-05
-4.73046e-05
-4.47363e-05
-4.22028e-05
-3.96769e-05
-3.71306e-05
-3.4535e-05
-3.18604e-05
-2.90776e-05
-2.6161e-05
-2.30953e-05
-1.98873e-05
-1.65846e-05
-1.33076e-05
-1.02822e-05
-7.79579e-06
-5.97908e-06
-4.19848e-06
-2.95895e-06
-2.04599e-06
-1.38224e-06
-9.02163e-07
-5.55219e-07
-3.13904e-07
-6.85441e-05
-6.49749e-05
-6.1624e-05
-5.84706e-05
-5.54898e-05
-5.26539e-05
-4.99347e-05
-4.73046e-05
-4.47363e-05
-4.22028e-05
-3.96769e-05
-3.71306e-05
-3.4535e-05
-3.18604e-05
-2.90776e-05
-2.6161e-05
-2.30953e-05
-1.98873e-05
-1.65846e-05
-1.33076e-05
-1.02822e-05
-7.79579e-06
-5.97908e-06
-4.19848e-06
-2.95895e-06
-2.04599e-06
-1.38224e-06
-9.02163e-07
-5.55219e-07
-3.13904e-07
-6.84105e-05
-6.48308e-05
-6.14888e-05
-5.83435e-05
-5.53695e-05
-5.25395e-05
-4.98252e-05
-4.7199e-05
-4.46337e-05
-4.21024e-05
-3.95779e-05
-3.70322e-05
-3.44365e-05
-3.17611e-05
-2.89771e-05
-2.60591e-05
-2.29927e-05
-1.97854e-05
-1.64867e-05
-1.32189e-05
-1.021e-05
-7.74669e-06
-5.93539e-06
-4.17131e-06
-2.94111e-06
-2.03488e-06
-1.37578e-06
-8.98713e-07
-5.53625e-07
-3.13366e-07
-6.81448e-05
-6.45439e-05
-6.12198e-05
-5.80903e-05
-5.513e-05
-5.23115e-05
-4.96068e-05
-4.69883e-05
-4.4429e-05
-4.19019e-05
-3.938e-05
-3.68354e-05
-3.42393e-05
-3.15622e-05
-2.87755e-05
-2.58547e-05
-2.27866e-05
-1.95809e-05
-1.62902e-05
-1.30415e-05
-1.00659e-05
-7.64883e-06
-5.84797e-06
-4.11695e-06
-2.90541e-06
-2.01262e-06
-1.3628e-06
-8.91762e-07
-5.50396e-07
-3.1226e-07
-6.77498e-05
-6.41167e-05
-6.08191e-05
-5.77131e-05
-5.47731e-05
-5.19717e-05
-4.92811e-05
-4.66739e-05
-4.41231e-05
-4.1602e-05
-3.90836e-05
-3.654e-05
-3.39428e-05
-3.12626e-05
-2.84715e-05
-2.55462e-05
-2.24754e-05
-1.92722e-05
-1.59942e-05
-1.27751e-05
-9.85067e-06
-7.50293e-06
-5.71683e-06
-4.03531e-06
-2.85179e-06
-1.97914e-06
-1.34322e-06
-8.81207e-07
-5.45442e-07
-3.10523e-07
-6.72299e-05
-6.35528e-05
-6.02898e-05
-5.72145e-05
-5.43011e-05
-5.15221e-05
-4.88498e-05
-4.62571e-05
-4.37171e-05
-4.12033e-05
-3.86888e-05
-3.61459e-05
-3.35463e-05
-3.08611e-05
-2.80634e-05
-2.51314e-05
-2.20567e-05
-1.88572e-05
-1.55973e-05
-1.24198e-05
-9.5658e-06
-7.31018e-06
-5.542e-06
-3.92627e-06
-2.78016e-06
-1.93432e-06
-1.31686e-06
-8.66871e-07
-5.38617e-07
-3.08054e-07
-6.65901e-05
-6.28559e-05
-5.9635e-05
-5.65974e-05
-5.37165e-05
-5.09648e-05
-4.83148e-05
-4.57395e-05
-4.32122e-05
-4.07065e-05
-3.81958e-05
-3.56525e-05
-3.30486e-05
-3.03559e-05
-2.75485e-05
-2.46072e-05
-2.15274e-05
-1.83331e-05
-1.5098e-05
-1.19762e-05
-9.21361e-06
-7.0723e-06
-5.32369e-06
-3.78968e-06
-2.69035e-06
-1.87792e-06
-1.28346e-06
-8.48492e-07
-5.29707e-07
-3.047e-07
-6.58355e-05
-6.20292e-05
-5.88573e-05
-5.58636e-05
-5.30208e-05
-5.03012e-05
-4.76771e-05
-4.51218e-05
-4.26088e-05
-4.01118e-05
-3.76043e-05
-3.5059e-05
-3.24482e-05
-2.97446e-05
-2.69241e-05
-2.39704e-05
-2.08842e-05
-1.76975e-05
-1.44956e-05
-1.14464e-05
-8.79799e-06
-6.79189e-06
-5.0625e-06
-3.62547e-06
-2.58221e-06
-1.80968e-06
-1.24266e-06
-8.25711e-07
-5.18417e-07
-3.00254e-07
-6.4968e-05
-6.10735e-05
-5.79579e-05
-5.50143e-05
-5.22146e-05
-4.95311e-05
-4.69362e-05
-4.44032e-05
-4.19058e-05
-3.94179e-05
-3.69128e-05
-3.43636e-05
-3.1743e-05
-2.9025e-05
-2.61876e-05
-2.32184e-05
-2.0125e-05
-1.69495e-05
-1.37919e-05
-1.08356e-05
-8.32566e-06
-6.47309e-06
-4.76023e-06
-3.43405e-06
-2.45579e-06
-1.72938e-06
-1.19408e-06
-7.98125e-07
-5.04399e-07
-2.94459e-07
-6.39751e-05
-5.99873e-05
-5.69382e-05
-5.40495e-05
-5.12968e-05
-4.86525e-05
-4.6089e-05
-4.35799e-05
-4.10989e-05
-3.86199e-05
-3.61166e-05
-3.35622e-05
-3.09299e-05
-2.81952e-05
-2.53387e-05
-2.23532e-05
-1.92545e-05
-1.60974e-05
-1.29995e-05
-1.016e-05
-7.81208e-06
-6.12574e-06
-4.42403e-06
-3.21904e-06
-2.31327e-06
-1.63817e-06
-1.13823e-06
-7.65861e-07
-4.87608e-07
-2.87205e-07
-6.24792e-05
-5.85435e-05
-5.5595e-05
-5.28003e-05
-5.01273e-05
-4.75477e-05
-4.50353e-05
-4.25648e-05
-4.01113e-05
-3.76496e-05
-3.51543e-05
-3.25997e-05
-2.99609e-05
-2.72158e-05
-2.43494e-05
-2.13616e-05
-1.82782e-05
-1.51685e-05
-1.21679e-05
-9.48567e-06
-7.34718e-06
-5.70786e-06
-4.14831e-06
-3.03084e-06
-2.18866e-06
-1.55933e-06
-1.09084e-06
-7.39265e-07
-4.74428e-07
-2.82025e-07
-6.25574e-05
-5.86395e-05
-5.568e-05
-5.28732e-05
-5.01891e-05
-4.75999e-05
-4.50792e-05
-4.26016e-05
-4.01418e-05
-3.76746e-05
-3.51745e-05
-3.26157e-05
-2.99731e-05
-2.72247e-05
-2.43554e-05
-2.1365e-05
-1.82794e-05
-1.5168e-05
-1.21663e-05
-9.48385e-06
-7.34605e-06
-5.70589e-06
-4.14713e-06
-3.03008e-06
-2.18824e-06
-1.55917e-06
-1.09085e-06
-7.39371e-07
-4.74567e-07
-2.82153e-07
-6.39405e-05
-5.99884e-05
-5.69403e-05
-5.4053e-05
-5.13009e-05
-4.86567e-05
-4.60933e-05
-4.35842e-05
-4.11033e-05
-3.86247e-05
-3.61219e-05
-3.3568e-05
-3.09365e-05
-2.82026e-05
-2.53469e-05
-2.23622e-05
-1.9264e-05
-1.61069e-05
-1.30085e-05
-1.01677e-05
-7.81796e-06
-6.12984e-06
-4.42789e-06
-3.22163e-06
-2.31505e-06
-1.63936e-06
-1.13901e-06
-7.66339e-07
-4.87881e-07
-2.87344e-07
-6.49447e-05
-6.10757e-05
-5.7961e-05
-5.50186e-05
-5.22198e-05
-4.9537e-05
-4.69428e-05
-4.44104e-05
-4.19137e-05
-3.94264e-05
-3.69221e-05
-3.43735e-05
-3.17537e-05
-2.90363e-05
-2.61994e-05
-2.32308e-05
-2.01375e-05
-1.69619e-05
-1.38035e-05
-1.08456e-05
-8.33336e-06
-6.47828e-06
-4.76517e-06
-3.43726e-06
-2.45795e-06
-1.73078e-06
-1.19496e-06
-7.9864e-07
-5.04675e-07
-2.94585e-07
-6.58201e-05
-6.20321e-05
-5.8861e-05
-5.58683e-05
-5.30265e-05
-5.03077e-05
-4.76844e-05
-4.51298e-05
-4.26174e-05
-4.0121e-05
-3.76141e-05
-3.50692e-05
-3.24589e-05
-2.97558e-05
-2.69357e-05
-2.39824e-05
-2.08963e-05
-1.77095e-05
-1.45069e-05
-1.14564e-05
-8.80577e-06
-6.79711e-06
-5.06739e-06
-3.62859e-06
-2.58428e-06
-1.811e-06
-1.24346e-06
-8.26167e-07
-5.18649e-07
-3.0035e-07
-6.65809e-05
-6.28592e-05
-5.96388e-05
-5.6602e-05
-5.37219e-05
-5.0971e-05
-4.83216e-05
-4.57468e-05
-4.322e-05
-4.07148e-05
-3.82045e-05
-3.56615e-05
-3.30579e-05
-3.03656e-05
-2.75585e-05
-2.46175e-05
-2.15379e-05
-1.83435e-05
-1.51079e-05
-1.1985e-05
-9.22057e-06
-7.07697e-06
-5.32799e-06
-3.79239e-06
-2.69214e-06
-1.87905e-06
-1.28413e-06
-8.48864e-07
-5.29889e-07
-3.0477e-07
-6.72254e-05
-6.35563e-05
-6.02935e-05
-5.72187e-05
-5.43059e-05
-5.15274e-05
-4.88556e-05
-4.62632e-05
-4.37235e-05
-4.121e-05
-3.86958e-05
-3.61532e-05
-3.35538e-05
-3.08689e-05
-2.80713e-05
-2.51395e-05
-2.2065e-05
-1.88654e-05
-1.56052e-05
-1.24269e-05
-9.57149e-06
-7.314e-06
-5.54547e-06
-3.92843e-06
-2.78158e-06
-1.93521e-06
-1.31739e-06
-8.67157e-07
-5.38753e-07
-3.08103e-07
-6.77489e-05
-6.41201e-05
-6.08224e-05
-5.77165e-05
-5.47769e-05
-5.19758e-05
-4.92855e-05
-4.66785e-05
-4.41279e-05
-4.1607e-05
-3.90888e-05
-3.65454e-05
-3.39484e-05
-3.12684e-05
-2.84774e-05
-2.55522e-05
-2.24815e-05
-1.92783e-05
-1.60001e-05
-1.27804e-05
-9.85496e-06
-7.50583e-06
-5.71942e-06
-4.03691e-06
-2.85284e-06
-1.9798e-06
-1.34361e-06
-8.81413e-07
-5.45537e-07
-3.10556e-07
-6.81463e-05
-6.4547e-05
-6.12226e-05
-5.8093e-05
-5.51328e-05
-5.23145e-05
-4.96099e-05
-4.69916e-05
-4.44324e-05
-4.19055e-05
-3.93837e-05
-3.68392e-05
-3.42432e-05
-3.15662e-05
-2.87796e-05
-2.58589e-05
-2.27909e-05
-1.95851e-05
-1.62943e-05
-1.30452e-05
-1.00689e-05
-7.65088e-06
-5.84978e-06
-4.11806e-06
-2.90614e-06
-2.01307e-06
-1.36307e-06
-8.91903e-07
-5.5046e-07
-3.12281e-07
-6.84136e-05
-6.48337e-05
-6.14912e-05
-5.83456e-05
-5.53716e-05
-5.25416e-05
-4.98273e-05
-4.72012e-05
-4.46361e-05
-4.21049e-05
-3.95804e-05
-3.70348e-05
-3.44392e-05
-3.17639e-05
-2.89799e-05
-2.6062e-05
-2.29956e-05
-1.97883e-05
-1.64895e-05
-1.32215e-05
-1.0212e-05
-7.7481e-06
-5.93662e-06
-4.17206e-06
-2.9416e-06
-2.03518e-06
-1.37595e-06
-8.98806e-07
-5.53668e-07
-3.1338e-07
-6.8548e-05
-6.49777e-05
-6.16261e-05
-5.84724e-05
-5.54915e-05
-5.26555e-05
-4.99364e-05
-4.73064e-05
-4.47381e-05
-4.22047e-05
-3.96788e-05
-3.71326e-05
-3.45371e-05
-3.18625e-05
-2.90797e-05
-2.61632e-05
-2.30976e-05
-1.98895e-05
-1.65867e-05
-1.33095e-05
-1.02838e-05
-7.79686e-06
-5.98001e-06
-4.19904e-06
-2.95932e-06
-2.04622e-06
-1.38237e-06
-9.02233e-07
-5.5525e-07
-3.13914e-07
-6.8548e-05
-6.49777e-05
-6.16261e-05
-5.84724e-05
-5.54915e-05
-5.26555e-05
-4.99364e-05
-4.73064e-05
-4.47381e-05
-4.22047e-05
-3.96788e-05
-3.71326e-05
-3.45371e-05
-3.18625e-05
-2.90797e-05
-2.61632e-05
-2.30976e-05
-1.98895e-05
-1.65867e-05
-1.33095e-05
-1.02838e-05
-7.79686e-06
-5.98001e-06
-4.19904e-06
-2.95932e-06
-2.04622e-06
-1.38237e-06
-9.02233e-07
-5.5525e-07
-3.13914e-07
-6.84136e-05
-6.48337e-05
-6.14912e-05
-5.83456e-05
-5.53716e-05
-5.25416e-05
-4.98273e-05
-4.72012e-05
-4.46361e-05
-4.21049e-05
-3.95804e-05
-3.70348e-05
-3.44392e-05
-3.17639e-05
-2.89799e-05
-2.6062e-05
-2.29956e-05
-1.97883e-05
-1.64895e-05
-1.32215e-05
-1.0212e-05
-7.7481e-06
-5.93662e-06
-4.17206e-06
-2.9416e-06
-2.03518e-06
-1.37595e-06
-8.98806e-07
-5.53668e-07
-3.1338e-07
-6.81463e-05
-6.4547e-05
-6.12226e-05
-5.8093e-05
-5.51328e-05
-5.23145e-05
-4.96099e-05
-4.69916e-05
-4.44324e-05
-4.19055e-05
-3.93837e-05
-3.68392e-05
-3.42432e-05
-3.15662e-05
-2.87796e-05
-2.58589e-05
-2.27909e-05
-1.95851e-05
-1.62943e-05
-1.30452e-05
-1.00689e-05
-7.65088e-06
-5.84978e-06
-4.11806e-06
-2.90614e-06
-2.01307e-06
-1.36307e-06
-8.91903e-07
-5.5046e-07
-3.12281e-07
-6.77489e-05
-6.41201e-05
-6.08224e-05
-5.77165e-05
-5.47769e-05
-5.19758e-05
-4.92855e-05
-4.66785e-05
-4.41279e-05
-4.1607e-05
-3.90888e-05
-3.65454e-05
-3.39484e-05
-3.12684e-05
-2.84774e-05
-2.55522e-05
-2.24815e-05
-1.92783e-05
-1.60001e-05
-1.27804e-05
-9.85496e-06
-7.50583e-06
-5.71942e-06
-4.03691e-06
-2.85284e-06
-1.9798e-06
-1.34361e-06
-8.81413e-07
-5.45537e-07
-3.10556e-07
-6.72254e-05
-6.35563e-05
-6.02935e-05
-5.72187e-05
-5.43059e-05
-5.15274e-05
-4.88556e-05
-4.62632e-05
-4.37235e-05
-4.121e-05
-3.86958e-05
-3.61532e-05
-3.35538e-05
-3.08689e-05
-2.80713e-05
-2.51395e-05
-2.2065e-05
-1.88654e-05
-1.56052e-05
-1.24269e-05
-9.57149e-06
-7.314e-06
-5.54547e-06
-3.92843e-06
-2.78158e-06
-1.93521e-06
-1.31739e-06
-8.67157e-07
-5.38753e-07
-3.08103e-07
-6.65809e-05
-6.28592e-05
-5.96388e-05
-5.6602e-05
-5.37219e-05
-5.0971e-05
-4.83216e-05
-4.57468e-05
-4.322e-05
-4.07148e-05
-3.82045e-05
-3.56615e-05
-3.30579e-05
-3.03656e-05
-2.75585e-05
-2.46175e-05
-2.15379e-05
-1.83435e-05
-1.51079e-05
-1.1985e-05
-9.22057e-06
-7.07697e-06
-5.32799e-06
-3.79239e-06
-2.69214e-06
-1.87905e-06
-1.28413e-06
-8.48864e-07
-5.29889e-07
-3.0477e-07
-6.58201e-05
-6.20321e-05
-5.8861e-05
-5.58683e-05
-5.30265e-05
-5.03077e-05
-4.76844e-05
-4.51298e-05
-4.26174e-05
-4.0121e-05
-3.76141e-05
-3.50692e-05
-3.24589e-05
-2.97558e-05
-2.69357e-05
-2.39824e-05
-2.08963e-05
-1.77095e-05
-1.45069e-05
-1.14564e-05
-8.80577e-06
-6.79711e-06
-5.06739e-06
-3.62859e-06
-2.58428e-06
-1.811e-06
-1.24346e-06
-8.26167e-07
-5.18649e-07
-3.0035e-07
-6.49447e-05
-6.10757e-05
-5.7961e-05
-5.50186e-05
-5.22198e-05
-4.9537e-05
-4.69428e-05
-4.44104e-05
-4.19137e-05
-3.94264e-05
-3.69221e-05
-3.43735e-05
-3.17537e-05
-2.90363e-05
-2.61994e-05
-2.32308e-05
-2.01375e-05
-1.69619e-05
-1.38035e-05
-1.08456e-05
-8.33336e-06
-6.47828e-06
-4.76517e-06
-3.43726e-06
-2.45795e-06
-1.73078e-06
-1.19496e-06
-7.9864e-07
-5.04675e-07
-2.94585e-07
-6.39405e-05
-5.99884e-05
-5.69403e-05
-5.4053e-05
-5.13009e-05
-4.86567e-05
-4.60933e-05
-4.35842e-05
-4.11033e-05
-3.86247e-05
-3.61219e-05
-3.3568e-05
-3.09365e-05
-2.82026e-05
-2.53469e-05
-2.23622e-05
-1.9264e-05
-1.61069e-05
-1.30085e-05
-1.01677e-05
-7.81796e-06
-6.12984e-06
-4.42789e-06
-3.22163e-06
-2.31505e-06
-1.63936e-06
-1.13901e-06
-7.66339e-07
-4.87881e-07
-2.87344e-07
-6.25574e-05
-5.86395e-05
-5.568e-05
-5.28732e-05
-5.01891e-05
-4.75999e-05
-4.50792e-05
-4.26016e-05
-4.01418e-05
-3.76746e-05
-3.51745e-05
-3.26157e-05
-2.99731e-05
-2.72247e-05
-2.43554e-05
-2.1365e-05
-1.82794e-05
-1.5168e-05
-1.21663e-05
-9.48385e-06
-7.34605e-06
-5.70589e-06
-4.14713e-06
-3.03008e-06
-2.18824e-06
-1.55917e-06
-1.09085e-06
-7.39371e-07
-4.74567e-07
-2.82153e-07
-6.24792e-05
-5.85435e-05
-5.5595e-05
-5.28003e-05
-5.01273e-05
-4.75477e-05
-4.50353e-05
-4.25648e-05
-4.01113e-05
-3.76496e-05
-3.51543e-05
-3.25997e-05
-2.99609e-05
-2.72158e-05
-2.43494e-05
-2.13616e-05
-1.82782e-05
-1.51685e-05
-1.21679e-05
-9.48567e-06
-7.34718e-06
-5.70786e-06
-4.14831e-06
-3.03084e-06
-2.18866e-06
-1.55933e-06
-1.09084e-06
-7.39265e-07
-4.74428e-07
-2.82025e-07
-6.39751e-05
-5.99873e-05
-5.69382e-05
-5.40495e-05
-5.12968e-05
-4.86525e-05
-4.6089e-05
-4.35799e-05
-4.10989e-05
-3.86199e-05
-3.61166e-05
-3.35622e-05
-3.09299e-05
-2.81952e-05
-2.53387e-05
-2.23532e-05
-1.92545e-05
-1.60974e-05
-1.29995e-05
-1.016e-05
-7.81208e-06
-6.12574e-06
-4.42403e-06
-3.21904e-06
-2.31327e-06
-1.63817e-06
-1.13823e-06
-7.65861e-07
-4.87608e-07