/*--------------------------------*- C++ -*----------------------------------*\
| =========                 |                                                 |
| \\      /  F ield         | OpenFOAM: The Open Source CFD Toolbox           |
|  \\    /   O peration     | Version:  2306                                  |
|   \\  /    A nd           | Website:  www.openfoam.com                      |
|    \\/     M anipulation  |                                                 |
\*---------------------------------------------------------------------------*/
FoamFile
{
    version     2.0;
    format      ascii;
    arch        "LSB;label=32;scalar=64";
    class       volScalarField;
    location    "12336";
    object      nut;
}
// * * * * * * * * * * * * * * * * * * * * * * * * * * * * * * * * * * * * * //

dimensions      [0 2 -1 0 0 0 0];

internalField   nonuniform List<scalar> 
2800
(
0.0036992
0.00388459
0.00405536
0.00421094
0.00434846
0.00446597
0.00456193
0.00463506
0.00468439
0.00470923
0.00470923
0.00468439
0.00463506
0.00456193
0.00446597
0.00434846
0.00421094
0.00405536
0.00388459
0.0036992
0.00388552
0.00412478
0.00434206
0.00454005
0.00471642
0.00486841
0.00499344
0.0050893
0.00515423
0.00518702
0.00518702
0.00515423
0.0050893
0.00499344
0.0048684
0.00471642
0.00454005
0.00434206
0.00412478
0.00388552
0.0040564
0.00434251
0.00460665
0.00484837
0.0050648
0.00525247
0.00540779
0.00552751
0.00560893
0.00565013
0.00565013
0.00560893
0.00552751
0.00540779
0.00525247
0.0050648
0.00484837
0.00460665
0.00434251
0.0040564
0.00421191
0.00454069
0.00484867
0.00513296
0.00538918
0.00561266
0.00579863
0.00594264
0.00604092
0.00609078
0.00609078
0.00604092
0.00594264
0.00579863
0.00561266
0.00538918
0.00513296
0.00484867
0.00454069
0.00421191
0.00434932
0.00471709
0.00506525
0.00538938
0.00568363
0.00594184
0.00615786
0.00632585
0.00644087
0.00649933
0.00649933
0.00644087
0.00632585
0.00615786
0.00594184
0.00568363
0.00538938
0.00506525
0.00471709
0.00434932
0.00446671
0.00486904
0.00525296
0.00561298
0.00594199
0.00623242
0.00647659
0.00666723
0.00679815
0.0068648
0.0068648
0.00679815
0.00666723
0.00647659
0.00623242
0.00594199
0.00561298
0.00525296
0.00486904
0.00446671
0.00456254
0.004994
0.00540828
0.00579901
0.0061581
0.0064767
0.00674571
0.00695649
0.00710161
0.00717561
0.00717561
0.00710161
0.00695649
0.00674571
0.0064767
0.0061581
0.00579901
0.00540828
0.004994
0.00456254
0.00463558
0.0050898
0.00552798
0.00594303
0.00632614
0.00666742
0.00695658
0.00718377
0.00734051
0.00742054
0.00742054
0.00734051
0.00718377
0.00695658
0.00666742
0.00632614
0.00594303
0.00552798
0.0050898
0.00463558
0.00468483
0.00515469
0.00560937
0.00604132
0.00644119
0.00679838
0.00710175
0.00734057
0.00750557
0.00758988
0.00758988
0.00750557
0.00734057
0.00710175
0.00679838
0.00644119
0.00604132
0.00560937
0.00515469
0.00468483
0.00470963
0.00518744
0.00565055
0.00609117
0.00649966
0.00686506
0.00717578
0.00742063
0.00758991
0.00767646
0.00767646
0.00758991
0.00742063
0.00717578
0.00686506
0.00649966
0.00609117
0.00565055
0.00518744
0.00470963
0.00470963
0.00518744
0.00565055
0.00609117
0.00649966
0.00686506
0.00717578
0.00742063
0.00758991
0.00767646
0.00767646
0.00758991
0.00742063
0.00717578
0.00686506
0.00649966
0.00609117
0.00565055
0.00518744
0.00470963
0.00468483
0.00515469
0.00560937
0.00604132
0.00644119
0.00679838
0.00710175
0.00734057
0.00750557
0.00758988
0.00758988
0.00750557
0.00734057
0.00710175
0.00679838
0.00644119
0.00604132
0.00560937
0.00515469
0.00468483
0.00463558
0.0050898
0.00552798
0.00594303
0.00632614
0.00666742
0.00695658
0.00718377
0.00734051
0.00742054
0.00742054
0.00734051
0.00718377
0.00695658
0.00666742
0.00632614
0.00594303
0.00552798
0.0050898
0.00463558
0.00456254
0.004994
0.00540828
0.00579901
0.0061581
0.0064767
0.00674571
0.00695649
0.00710161
0.00717561
0.00717561
0.00710161
0.00695649
0.00674571
0.0064767
0.0061581
0.00579901
0.00540828
0.004994
0.00456254
0.00446671
0.00486904
0.00525296
0.00561298
0.00594199
0.00623242
0.00647659
0.00666723
0.00679815
0.0068648
0.0068648
0.00679815
0.00666723
0.00647659
0.00623242
0.00594199
0.00561298
0.00525296
0.00486904
0.00446671
0.00434932
0.00471709
0.00506525
0.00538938
0.00568363
0.00594184
0.00615786
0.00632585
0.00644087
0.00649933
0.00649933
0.00644087
0.00632585
0.00615786
0.00594184
0.00568363
0.00538938
0.00506525
0.00471709
0.00434932
0.00421191
0.00454069
0.00484867
0.00513296
0.00538918
0.00561266
0.00579863
0.00594264
0.00604092
0.00609078
0.00609078
0.00604092
0.00594264
0.00579863
0.00561266
0.00538918
0.00513296
0.00484867
0.00454069
0.00421191
0.0040564
0.00434251
0.00460665
0.00484837
0.0050648
0.00525247
0.00540779
0.00552751
0.00560893
0.00565013
0.00565013
0.00560893
0.00552751
0.00540779
0.00525247
0.0050648
0.00484837
0.00460665
0.00434251
0.0040564
0.00388552
0.00412478
0.00434206
0.00454005
0.00471642
0.0048684
0.00499344
0.0050893
0.00515423
0.00518702
0.00518702
0.00515423
0.0050893
0.00499344
0.0048684
0.00471642
0.00454005
0.00434206
0.00412478
0.00388552
0.0036992
0.00388459
0.00405536
0.00421094
0.00434846
0.00446597
0.00456193
0.00463506
0.00468439
0.00470923
0.00470923
0.00468439
0.00463506
0.00456193
0.00446597
0.00434846
0.00421094
0.00405536
0.00388459
0.0036992
0.00342274
0.00305486
0.00272103
0.00241517
0.00213512
0.00187889
0.00164466
0.00143084
0.00123604
0.00105904
0.000898754
0.000754234
0.000624624
0.000509153
0.000407115
0.000317859
0.000240777
0.00017532
0.00012108
7.80192e-05
4.65104e-05
2.70191e-05
1.73329e-05
1.06263e-05
6.04399e-06
3.06829e-06
1.30484e-06
4.08531e-07
6.58106e-08
8.33011e-10
0.00358145
0.0031985
0.00285138
0.00253349
0.00224246
0.00197614
0.0017326
0.00151016
0.00130734
0.00112285
0.000955557
0.000804458
0.000668668
0.000547392
0.000439909
0.000345562
0.000263741
0.000193885
0.000135549
8.85963e-05
5.33858e-05
3.00157e-05
1.91867e-05
1.17925e-05
6.73711e-06
3.43938e-06
1.47207e-06
4.64277e-07
7.54639e-08
9.66068e-10
0.00372133
0.00332726
0.00296865
0.00264011
0.00233928
0.00206392
0.00181204
0.00158188
0.00137188
0.0011807
0.00100715
0.000850214
0.000708955
0.000582558
0.000470282
0.000371457
0.000285463
0.000211728
0.000149772
9.93653e-05
6.07968e-05
3.44342e-05
2.11134e-05
1.29839e-05
7.44115e-06
3.81617e-06
1.6423e-06
5.21291e-07
8.54178e-08
1.1052e-09
0.00384597
0.00344193
0.00307318
0.0027352
0.00242565
0.00214227
0.00188299
0.00164597
0.00142962
0.00123253
0.00105347
0.00089136
0.000745258
0.000614315
0.000497773
0.000394947
0.000305211
0.000227989
0.00016278
0.000109294
6.77402e-05
3.86446e-05
2.29092e-05
1.40922e-05
8.09783e-06
4.16948e-06
1.80301e-06
5.75531e-07
9.49751e-08
1.24043e-09
0.00395483
0.00354202
0.00316442
0.00281823
0.0025011
0.00221073
0.00194501
0.00170205
0.00148017
0.00127793
0.00109406
0.000927449
0.000777119
0.000642202
0.000521925
0.000415595
0.00032258
0.000242302
0.00017425
0.000118093
7.39655e-05
4.24742e-05
2.45182e-05
1.50843e-05
8.68724e-06
4.48826e-06
1.94896e-06
6.25144e-07
1.0379e-07
1.36652e-09
0.00404711
0.00362686
0.00324176
0.00288861
0.00256507
0.0022688
0.00199763
0.00174962
0.00152306
0.00131646
0.00112851
0.000958076
0.000804156
0.000665866
0.000542421
0.000433119
0.000337325
0.000254459
0.000184005
0.000125601
7.93235e-05
4.58091e-05
2.59047e-05
1.59387e-05
9.19616e-06
4.76478e-06
2.07627e-06
6.68695e-07
1.11584e-07
1.47904e-09
0.00412201
0.00369574
0.00330455
0.00294576
0.00261701
0.00231595
0.00204035
0.00178824
0.00155788
0.00134773
0.00115646
0.00098292
0.000826083
0.000685054
0.000559038
0.000447327
0.000349281
0.000264321
0.000191924
0.000131712
8.37116e-05
4.85656e-05
2.70425e-05
1.66395e-05
9.61453e-06
4.99298e-06
2.18184e-06
7.04995e-07
1.18119e-07
1.57411e-09
0.00417883
0.00374802
0.00335222
0.00298914
0.00265645
0.00235174
0.00207278
0.00181755
0.00158429
0.00137144
0.00117765
0.00100175
0.000842694
0.000699586
0.000571622
0.000458086
0.000358337
0.000271791
0.000197927
0.000136352
8.70579e-05
5.06824e-05
2.7912e-05
1.7175e-05
9.93471e-06
5.16815e-06
2.26318e-06
7.3308e-07
1.23198e-07
1.64846e-09
0.00421703
0.00378318
0.00338428
0.00301833
0.00268297
0.0023758
0.00209458
0.00183725
0.00160204
0.00138737
0.00119188
0.00101439
0.000853843
0.000709339
0.000580066
0.000465305
0.000364413
0.000276805
0.000201958
0.000139471
8.93139e-05
5.21163e-05
2.84991e-05
1.75365e-05
1.01512e-05
5.28684e-06
2.31845e-06
7.52216e-07
1.26671e-07
1.6995e-09
0.00423623
0.00380086
0.0034004
0.003033
0.0026963
0.0023879
0.00210553
0.00184715
0.00161095
0.00139537
0.00119903
0.00102073
0.00085944
0.000714235
0.000584304
0.000468929
0.000367463
0.000279322
0.000203982
0.000141037
9.04492e-05
5.28399e-05
2.87949e-05
1.77186e-05
1.02603e-05
5.34676e-06
2.34639e-06
7.61909e-07
1.28433e-07
1.72548e-09
0.00423623
0.00380086
0.0034004
0.003033
0.0026963
0.0023879
0.00210553
0.00184715
0.00161095
0.00139537
0.00119903
0.00102073
0.00085944
0.000714235
0.000584304
0.000468929
0.000367463
0.000279322
0.000203982
0.000141037
9.04492e-05
5.28399e-05
2.87949e-05
1.77186e-05
1.02603e-05
5.34676e-06
2.34639e-06
7.61909e-07
1.28433e-07
1.72548e-09
0.00421703
0.00378318
0.00338428
0.00301833
0.00268297
0.0023758
0.00209458
0.00183725
0.00160204
0.00138737
0.00119188
0.00101439
0.000853843
0.000709339
0.000580066
0.000465305
0.000364413
0.000276805
0.000201958
0.000139471
8.93139e-05
5.21163e-05
2.84991e-05
1.75365e-05
1.01512e-05
5.28684e-06
2.31845e-06
7.52216e-07
1.26671e-07
1.6995e-09
0.00417883
0.00374802
0.00335222
0.00298914
0.00265645
0.00235174
0.00207278
0.00181755
0.00158429
0.00137144
0.00117765
0.00100175
0.000842694
0.000699586
0.000571622
0.000458086
0.000358337
0.000271791
0.000197927
0.000136352
8.70579e-05
5.06824e-05
2.7912e-05
1.7175e-05
9.93471e-06
5.16815e-06
2.26318e-06
7.3308e-07
1.23198e-07
1.64846e-09
0.00412201
0.00369574
0.00330455
0.00294576
0.00261701
0.00231595
0.00204035
0.00178824
0.00155788
0.00134773
0.00115646
0.00098292
0.000826083
0.000685054
0.000559038
0.000447327
0.000349281
0.000264321
0.000191924
0.000131712
8.37116e-05
4.85656e-05
2.70425e-05
1.66395e-05
9.61453e-06
4.99298e-06
2.18184e-06
7.04995e-07
1.18119e-07
1.57411e-09
0.00404711
0.00362686
0.00324176
0.00288861
0.00256507
0.0022688
0.00199763
0.00174962
0.00152306
0.00131646
0.00112851
0.000958076
0.000804156
0.000665866
0.000542421
0.000433119
0.000337325
0.000254459
0.000184005
0.000125601
7.93235e-05
4.58091e-05
2.59047e-05
1.59387e-05
9.19616e-06
4.76478e-06
2.07627e-06
6.68695e-07
1.11584e-07
1.47904e-09
0.00395483
0.00354202
0.00316442
0.00281823
0.0025011
0.00221073
0.00194501
0.00170205
0.00148017
0.00127793
0.00109406
0.000927449
0.000777119
0.000642202
0.000521925
0.000415595
0.00032258
0.000242302
0.00017425
0.000118093
7.39655e-05
4.24742e-05
2.45182e-05
1.50843e-05
8.68724e-06
4.48826e-06
1.94896e-06
6.25144e-07
1.0379e-07
1.36652e-09
0.00384597
0.00344193
0.00307318
0.0027352
0.00242565
0.00214227
0.00188299
0.00164597
0.00142962
0.00123253
0.00105347
0.00089136
0.000745258
0.000614315
0.000497773
0.000394947
0.000305211
0.000227989
0.00016278
0.000109294
6.77402e-05
3.86447e-05
2.29092e-05
1.40922e-05
8.09783e-06
4.16948e-06
1.80301e-06
5.75531e-07
9.49751e-08
1.24043e-09
0.00372133
0.00332726
0.00296865
0.00264011
0.00233928
0.00206392
0.00181204
0.00158188
0.00137188
0.0011807
0.00100715
0.000850214
0.000708955
0.000582558
0.000470282
0.000371457
0.000285463
0.000211728
0.000149772
9.93653e-05
6.07968e-05
3.44342e-05
2.11134e-05
1.29839e-05
7.44116e-06
3.81617e-06
1.6423e-06
5.21291e-07
8.54178e-08
1.1052e-09
0.00358145
0.0031985
0.00285138
0.00253349
0.00224246
0.00197614
0.0017326
0.00151016
0.00130734
0.00112285
0.000955557
0.000804458
0.000668668
0.000547392
0.000439909
0.000345562
0.000263741
0.000193885
0.000135549
8.85963e-05
5.33858e-05
3.00157e-05
1.91867e-05
1.17925e-05
6.73711e-06
3.43938e-06
1.47207e-06
4.64277e-07
7.54639e-08
9.66069e-10
0.00342274
0.00305486
0.00272103
0.00241517
0.00213512
0.00187889
0.00164466
0.00143084
0.00123604
0.00105904
0.000898754
0.000754234
0.000624624
0.000509153
0.000407115
0.000317859
0.000240777
0.00017532
0.00012108
7.80192e-05
4.65104e-05
2.70191e-05
1.73329e-05
1.06263e-05
6.04399e-06
3.06829e-06
1.30484e-06
4.08531e-07
6.58106e-08
8.33011e-10
0.00342036
0.00305294
0.00271939
0.00241372
0.00213387
0.00187781
0.00164376
0.00143011
0.00123546
0.00105859
0.000898431
0.000754014
0.000624489
0.000509085
0.000407099
0.000317881
0.000240825
0.000175382
0.000121147
7.80805e-05
4.65566e-05
2.70367e-05
1.73449e-05
1.06344e-05
6.04916e-06
3.07126e-06
1.30627e-06
4.09037e-07
6.59027e-08
8.34331e-10
0.00358055
0.00319743
0.00285038
0.00253255
0.00224158
0.00197534
0.00173187
0.0015095
0.00130675
0.00112231
0.000955072
0.000804023
0.000668279
0.000547046
0.000439606
0.0003453
0.000263518
0.000193702
0.000135403
8.84864e-05
5.33116e-05
2.99723e-05
1.91672e-05
1.17804e-05
6.72995e-06
3.43556e-06
1.47036e-06
4.63704e-07
7.53636e-08
9.64619e-10
0.00372048
0.00332631
0.00296772
0.00263919
0.00233838
0.00206306
0.00181121
0.00158109
0.00137113
0.00118
0.00100651
0.000849625
0.000708423
0.000582083
0.000469865
0.000371097
0.000285157
0.000211475
0.000149569
9.92103e-05
6.06891e-05
3.43695e-05
2.10854e-05
1.29665e-05
7.43086e-06
3.81063e-06
1.63978e-06
5.20437e-07
8.52667e-08
1.103e-09
0.00384516
0.00344106
0.00307231
0.00273432
0.00242478
0.00214141
0.00188215
0.00164516
0.00142885
0.00123181
0.0010528
0.000890754
0.000744712
0.00061383
0.000497347
0.00039458
0.000304899
0.00022773
0.000162572
0.000109134
6.76269e-05
3.85754e-05
2.28799e-05
1.40741e-05
8.087e-06
4.16361e-06
1.80032e-06
5.74613e-07
9.48109e-08
1.23802e-09
0.00395408
0.00354123
0.00316363
0.00281743
0.0025003
0.00220994
0.00194424
0.00170131
0.00147947
0.00127728
0.00109346
0.000926903
0.000776628
0.000641766
0.000521543
0.000415265
0.0003223
0.000242069
0.000174063
0.000117948
7.38618e-05
4.24098e-05
2.44913e-05
1.50677e-05
8.67731e-06
4.48285e-06
1.94646e-06
6.24284e-07
1.03635e-07
1.36422e-09
0.00404643
0.00362617
0.00324108
0.00288793
0.00256439
0.00226813
0.00199698
0.001749
0.00152248
0.00131592
0.00112801
0.000957626
0.000803752
0.000665508
0.000542107
0.000432848
0.000337095
0.000254268
0.000183851
0.000125482
7.92376e-05
4.57551e-05
2.58824e-05
1.59249e-05
9.18791e-06
4.76026e-06
2.07418e-06
6.6797e-07
1.11452e-07
1.47707e-09
0.00412139
0.00369515
0.00330399
0.00294521
0.00261647
0.00231542
0.00203985
0.00178777
0.00155743
0.00134732
0.00115608
0.000982578
0.000825777
0.000684782
0.000558801
0.000447122
0.000349108
0.000264177
0.000191808
0.000131622
8.36462e-05
4.85243e-05
2.70255e-05
1.6629e-05
9.60825e-06
4.98953e-06
2.18024e-06
7.04437e-07
1.18017e-07
1.57256e-09
0.00417827
0.00374753
0.00335177
0.00298872
0.00265604
0.00235135
0.00207241
0.0018172
0.00158397
0.00137114
0.00117738
0.0010015
0.000842475
0.000699393
0.000571453
0.000457941
0.000358214
0.00027169
0.000197846
0.000136288
8.70118e-05
5.0653e-05
2.79e-05
1.71676e-05
9.93029e-06
5.16573e-06
2.26205e-06
7.32684e-07
1.23125e-07
1.64733e-09
0.00421652
0.00378276
0.00338392
0.00301799
0.00268266
0.00237551
0.00209431
0.001837
0.00160181
0.00138716
0.00119169
0.00101421
0.00085369
0.000709205
0.000579949
0.000465205
0.000364329
0.000276736
0.000201902
0.000139427
8.92823e-05
5.20961e-05
2.84909e-05
1.75315e-05
1.01482e-05
5.2852e-06
2.31768e-06
7.51947e-07
1.26621e-07
1.69871e-09
0.00423574
0.00380047
0.00340008
0.00303272
0.00269605
0.00238767
0.00210532
0.00184695
0.00161077
0.0013952
0.00119888
0.0010206
0.000859322
0.000714131
0.000584215
0.000468853
0.000367399
0.00027927
0.00020394
0.000141005
9.04254e-05
5.28247e-05
2.87887e-05
1.77149e-05
1.02581e-05
5.34554e-06
2.34582e-06
7.6171e-07
1.28396e-07
1.72488e-09
0.00423574
0.00380047
0.00340008
0.00303272
0.00269605
0.00238767
0.00210532
0.00184695
0.00161077
0.0013952
0.00119888
0.0010206
0.000859322
0.000714131
0.000584215
0.000468853
0.000367399
0.00027927
0.00020394
0.000141005
9.04254e-05
5.28247e-05
2.87887e-05
1.77149e-05
1.02581e-05
5.34554e-06
2.34582e-06
7.6171e-07
1.28396e-07
1.72488e-09
0.00421652
0.00378276
0.00338392
0.00301799
0.00268266
0.00237551
0.00209431
0.001837
0.00160181
0.00138716
0.00119169
0.00101421
0.00085369
0.000709205
0.000579949
0.000465205
0.000364329
0.000276736
0.000201902
0.000139427
8.92823e-05
5.20961e-05
2.84909e-05
1.75315e-05
1.01482e-05
5.2852e-06
2.31768e-06
7.51947e-07
1.26621e-07
1.69871e-09
0.00417827
0.00374753
0.00335177
0.00298872
0.00265604
0.00235135
0.00207241
0.0018172
0.00158397
0.00137114
0.00117738
0.0010015
0.000842475
0.000699393
0.000571453
0.000457941
0.000358214
0.00027169
0.000197846
0.000136288
8.70118e-05
5.0653e-05
2.79e-05
1.71676e-05
9.93029e-06
5.16573e-06
2.26205e-06
7.32684e-07
1.23125e-07
1.64733e-09
0.00412139
0.00369515
0.00330399
0.00294521
0.00261647
0.00231542
0.00203985
0.00178777
0.00155743
0.00134732
0.00115608
0.000982578
0.000825777
0.000684782
0.000558801
0.000447122
0.000349108
0.000264177
0.000191808
0.000131622
8.36462e-05
4.85242e-05
2.70255e-05
1.6629e-05
9.60825e-06
4.98953e-06
2.18024e-06
7.04437e-07
1.18017e-07
1.57256e-09
0.00404643
0.00362617
0.00324108
0.00288793
0.00256439
0.00226813
0.00199698
0.001749
0.00152248
0.00131592
0.00112801
0.000957626
0.000803752
0.000665508
0.000542107
0.000432848
0.000337095
0.000254268
0.000183851
0.000125482
7.92376e-05
4.57551e-05
2.58824e-05
1.59249e-05
9.18791e-06
4.76026e-06
2.07418e-06
6.6797e-07
1.11452e-07
1.47707e-09
0.00395408
0.00354123
0.00316363
0.00281743
0.0025003
0.00220994
0.00194424
0.00170131
0.00147947
0.00127728
0.00109346
0.000926903
0.000776628
0.000641766
0.000521543
0.000415265
0.0003223
0.000242069
0.000174063
0.000117948
7.38618e-05
4.24098e-05
2.44913e-05
1.50677e-05
8.67731e-06
4.48285e-06
1.94646e-06
6.24284e-07
1.03635e-07
1.36422e-09
0.00384516
0.00344106
0.00307231
0.00273432
0.00242478
0.00214141
0.00188215
0.00164516
0.00142885
0.00123181
0.0010528
0.000890754
0.000744712
0.00061383
0.000497347
0.00039458
0.000304899
0.00022773
0.000162572
0.000109134
6.76269e-05
3.85754e-05
2.28799e-05
1.40741e-05
8.087e-06
4.16361e-06
1.80032e-06
5.74613e-07
9.48109e-08
1.23802e-09
0.00372048
0.00332631
0.00296772
0.00263919
0.00233838
0.00206306
0.00181121
0.00158109
0.00137113
0.00118
0.00100651
0.000849625
0.000708423
0.000582083
0.000469865
0.000371097
0.000285157
0.000211475
0.000149569
9.92103e-05
6.06891e-05
3.43695e-05
2.10854e-05
1.29665e-05
7.43086e-06
3.81063e-06
1.63978e-06
5.20437e-07
8.52667e-08
1.103e-09
0.00358055
0.00319743
0.00285038
0.00253255
0.00224158
0.00197534
0.00173187
0.0015095
0.00130675
0.00112231
0.000955072
0.000804023
0.000668279
0.000547046
0.000439606
0.0003453
0.000263518
0.000193702
0.000135403
8.84864e-05
5.33116e-05
2.99723e-05
1.91672e-05
1.17804e-05
6.72995e-06
3.43556e-06
1.47036e-06
4.63704e-07
7.53636e-08
9.64619e-10
0.00342036
0.00305294
0.00271939
0.00241372
0.00213387
0.00187781
0.00164376
0.00143011
0.00123546
0.00105859
0.000898431
0.000754014
0.000624489
0.000509085
0.000407099
0.000317881
0.000240825
0.000175382
0.000121147
7.80805e-05
4.65566e-05
2.70367e-05
1.73449e-05
1.06344e-05
6.04916e-06
3.07126e-06
1.30627e-06
4.09037e-07
6.59027e-08
8.34331e-10
0.00342274
0.00305486
0.00272103
0.00241517
0.00213512
0.00187889
0.00164466
0.00143084
0.00123604
0.00105904
0.000898754
0.000754234
0.000624624
0.000509153
0.000407115
0.000317859
0.000240777
0.00017532
0.00012108
7.80192e-05
4.65104e-05
2.70191e-05
1.73329e-05
1.06263e-05
6.04399e-06
3.06829e-06
1.30484e-06
4.08531e-07
6.58106e-08
8.33011e-10
0.00358145
0.0031985
0.00285138
0.00253349
0.00224246
0.00197614
0.0017326
0.00151016
0.00130734
0.00112285
0.000955557
0.000804458
0.000668668
0.000547392
0.000439909
0.000345562
0.000263741
0.000193885
0.000135549
8.85963e-05
5.33858e-05
3.00157e-05
1.91867e-05
1.17925e-05
6.73711e-06
3.43938e-06
1.47207e-06
4.64277e-07
7.54639e-08
9.66068e-10
0.00372133
0.00332726
0.00296865
0.00264011
0.00233928
0.00206392
0.00181204
0.00158188
0.00137188
0.0011807
0.00100715
0.000850214
0.000708955
0.000582558
0.000470282
0.000371457
0.000285463
0.000211728
0.000149772
9.93653e-05
6.07968e-05
3.44342e-05
2.11134e-05
1.29839e-05
7.44115e-06
3.81617e-06
1.6423e-06
5.21291e-07
8.54178e-08
1.1052e-09
0.00384597
0.00344193
0.00307318
0.0027352
0.00242565
0.00214227
0.00188299
0.00164597
0.00142962
0.00123253
0.00105347
0.00089136
0.000745258
0.000614315
0.000497773
0.000394947
0.000305211
0.000227989
0.00016278
0.000109294
6.77402e-05
3.86446e-05
2.29092e-05
1.40922e-05
8.09783e-06
4.16948e-06
1.80301e-06
5.75531e-07
9.49751e-08
1.24043e-09
0.00395483
0.00354202
0.00316442
0.00281823
0.0025011
0.00221073
0.00194501
0.00170205
0.00148017
0.00127793
0.00109406
0.000927449
0.000777119
0.000642202
0.000521925
0.000415595
0.00032258
0.000242302
0.00017425
0.000118093
7.39655e-05
4.24742e-05
2.45182e-05
1.50843e-05
8.68724e-06
4.48826e-06
1.94896e-06
6.25144e-07
1.0379e-07
1.36652e-09
0.00404711
0.00362686
0.00324176
0.00288861
0.00256507
0.0022688
0.00199763
0.00174962
0.00152306
0.00131646
0.00112851
0.000958076
0.000804156
0.000665866
0.000542421
0.000433119
0.000337325
0.000254459
0.000184005
0.000125601
7.93235e-05
4.58091e-05
2.59047e-05
1.59387e-05
9.19616e-06
4.76478e-06
2.07627e-06
6.68695e-07
1.11584e-07
1.47904e-09
0.00412201
0.00369574
0.00330455
0.00294576
0.00261701
0.00231595
0.00204035
0.00178824
0.00155788
0.00134773
0.00115646
0.00098292
0.000826083
0.000685054
0.000559038
0.000447327
0.000349281
0.000264321
0.000191924
0.000131712
8.37116e-05
4.85656e-05
2.70425e-05
1.66395e-05
9.61453e-06
4.99298e-06
2.18184e-06
7.04995e-07
1.18119e-07
1.57411e-09
0.00417883
0.00374802
0.00335222
0.00298914
0.00265645
0.00235174
0.00207278
0.00181755
0.00158429
0.00137144
0.00117765
0.00100175
0.000842694
0.000699586
0.000571622
0.000458086
0.000358337
0.000271791
0.000197927
0.000136352
8.70579e-05
5.06824e-05
2.7912e-05
1.7175e-05
9.93471e-06
5.16815e-06
2.26318e-06
7.3308e-07
1.23198e-07
1.64846e-09
0.00421703
0.00378318
0.00338428
0.00301833
0.00268297
0.0023758
0.00209458
0.00183725
0.00160204
0.00138737
0.00119188
0.00101439
0.000853843
0.000709339
0.000580066
0.000465305
0.000364413
0.000276805
0.000201958
0.000139471
8.93139e-05
5.21163e-05
2.84991e-05
1.75365e-05
1.01512e-05
5.28684e-06
2.31845e-06
7.52216e-07
1.26671e-07
1.6995e-09
0.00423623
0.00380086
0.0034004
0.003033
0.0026963
0.0023879
0.00210553
0.00184715
0.00161095
0.00139537
0.00119903
0.00102073
0.00085944
0.000714235
0.000584304
0.000468929
0.000367463
0.000279322
0.000203982
0.000141037
9.04492e-05
5.28399e-05
2.87949e-05
1.77186e-05
1.02603e-05
5.34676e-06
2.34639e-06
7.61909e-07
1.28433e-07
1.72548e-09
0.00423623
0.00380086
0.0034004
0.003033
0.0026963
0.0023879
0.00210553
0.00184715
0.00161095
0.00139537
0.00119903
0.00102073
0.00085944
0.000714235
0.000584304
0.000468929
0.000367463
0.000279322
0.000203982
0.000141037
9.04492e-05
5.28399e-05
2.87949e-05
1.77186e-05
1.02603e-05
5.34676e-06
2.34639e-06
7.61909e-07
1.28433e-07
1.72548e-09
0.00421703
0.00378318
0.00338428
0.00301833
0.00268297
0.0023758
0.00209458
0.00183725
0.00160204
0.00138737
0.00119188
0.00101439
0.000853843
0.000709339
0.000580066
0.000465305
0.000364413
0.000276805
0.000201958
0.000139471
8.93139e-05
5.21163e-05
2.84991e-05
1.75365e-05
1.01512e-05
5.28684e-06
2.31845e-06
7.52216e-07
1.26671e-07
1.6995e-09
0.00417883
0.00374802
0.00335222
0.00298914
0.00265645
0.00235174
0.00207278
0.00181755
0.00158429
0.00137144
0.00117765
0.00100175
0.000842694
0.000699586
0.000571622
0.000458086
0.000358337
0.000271791
0.000197927
0.000136352
8.70579e-05
5.06824e-05
2.7912e-05
1.7175e-05
9.93471e-06
5.16815e-06
2.26318e-06
7.3308e-07
1.23198e-07
1.64846e-09
0.00412201
0.00369574
0.00330455
0.00294576
0.00261701
0.00231595
0.00204035
0.00178824
0.00155788
0.00134773
0.00115646
0.00098292
0.000826083
0.000685054
0.000559038
0.000447327
0.000349281
0.000264321
0.000191924
0.000131712
8.37116e-05
4.85656e-05
2.70425e-05
1.66395e-05
9.61453e-06
4.99298e-06
2.18184e-06
7.04995e-07
1.18119e-07
1.57411e-09
0.00404711
0.00362686
0.00324176
0.00288861
0.00256507
0.0022688
0.00199763
0.00174962
0.00152306
0.00131646
0.00112851
0.000958076
0.000804156
0.000665866
0.000542421
0.000433119
0.000337325
0.000254459
0.000184005
0.000125601
7.93235e-05
4.58091e-05
2.59047e-05
1.59387e-05
9.19616e-06
4.76478e-06
2.07627e-06
6.68695e-07
1.11584e-07
1.47904e-09
0.00395483
0.00354202
0.00316442
0.00281823
0.0025011
0.00221073
0.00194501
0.00170205
0.00148017
0.00127793
0.00109406
0.000927449
0.000777119
0.000642202
0.000521925
0.000415595
0.00032258
0.000242302
0.00017425
0.000118093
7.39655e-05
4.24742e-05
2.45182e-05
1.50843e-05
8.68724e-06
4.48826e-06
1.94896e-06
6.25144e-07
1.0379e-07
1.36652e-09
0.00384597
0.00344193
0.00307318
0.0027352
0.00242565
0.00214227
0.00188299
0.00164597
0.00142962
0.00123253
0.00105347
0.00089136
0.000745258
0.000614315
0.000497773
0.000394947
0.000305211
0.000227989
0.00016278
0.000109294
6.77402e-05
3.86446e-05
2.29092e-05
1.40922e-05
8.09783e-06
4.16948e-06
1.80301e-06
5.75531e-07
9.49751e-08
1.24043e-09
0.00372133
0.00332726
0.00296865
0.00264011
0.00233928
0.00206392
0.00181204
0.00158188
0.00137188
0.0011807
0.00100715
0.000850214
0.000708955
0.000582558
0.000470282
0.000371457
0.000285463
0.000211728
0.000149772
9.93653e-05
6.07968e-05
3.44342e-05
2.11134e-05
1.29839e-05
7.44115e-06
3.81617e-06
1.6423e-06
5.21291e-07
8.54178e-08
1.1052e-09
0.00358145
0.0031985
0.00285138
0.00253349
0.00224246
0.00197614
0.0017326
0.00151016
0.00130734
0.00112285
0.000955557
0.000804458
0.000668668
0.000547392
0.000439909
0.000345562
0.000263741
0.000193885
0.000135549
8.85963e-05
5.33858e-05
3.00157e-05
1.91867e-05
1.17925e-05
6.73711e-06
3.43938e-06
1.47207e-06
4.64277e-07
7.54639e-08
9.66068e-10
0.00342274
0.00305486
0.00272103
0.00241517
0.00213512
0.00187889
0.00164466
0.00143084
0.00123604
0.00105904
0.000898754
0.000754234
0.000624624
0.000509153
0.000407115
0.000317859
0.000240777
0.00017532
0.00012108
7.80192e-05
4.65104e-05
2.70191e-05
1.73329e-05
1.06263e-05
6.04399e-06
3.06829e-06
1.30484e-06
4.08531e-07
6.58106e-08
8.33011e-10
0.00342036
0.00305294
0.00271939
0.00241372
0.00213387
0.00187781
0.00164376
0.00143011
0.00123546
0.00105859
0.000898431
0.000754014
0.000624489
0.000509085
0.000407099
0.000317881
0.000240825
0.000175382
0.000121147
7.80805e-05
4.65566e-05
2.70367e-05
1.73449e-05
1.06344e-05
6.04916e-06
3.07126e-06
1.30627e-06
4.09037e-07
6.59027e-08
8.34331e-10
0.00358055
0.00319743
0.00285038
0.00253255
0.00224158
0.00197534
0.00173187
0.0015095
0.00130675
0.00112231
0.000955072
0.000804023
0.000668279
0.000547046
0.000439606
0.0003453
0.000263518
0.000193702
0.000135403
8.84864e-05
5.33116e-05
2.99723e-05
1.91672e-05
1.17804e-05
6.72995e-06
3.43556e-06
1.47036e-06
4.63704e-07
7.53636e-08
9.64619e-10
0.00372048
0.00332631
0.00296772
0.00263919
0.00233838
0.00206306
0.00181121
0.00158109
0.00137113
0.00118
0.00100651
0.000849625
0.000708423
0.000582083
0.000469865
0.000371097
0.000285157
0.000211475
0.000149569
9.92103e-05
6.06891e-05
3.43695e-05
2.10854e-05
1.29665e-05
7.43086e-06
3.81063e-06
1.63978e-06
5.20437e-07
8.52667e-08
1.103e-09
0.00384516
0.00344106
0.00307231
0.00273432
0.00242478
0.00214141
0.00188215
0.00164516
0.00142885
0.00123181
0.0010528
0.000890754
0.000744712
0.00061383
0.000497347
0.00039458
0.000304899
0.00022773
0.000162572
0.000109134
6.76269e-05
3.85754e-05
2.28799e-05
1.40741e-05
8.087e-06
4.16361e-06
1.80032e-06
5.74613e-07
9.48109e-08
1.23802e-09
0.00395408
0.00354123
0.00316363
0.00281743
0.0025003
0.00220994
0.00194424
0.00170131
0.00147947
0.00127728
0.00109346
0.000926903
0.000776628
0.000641766
0.000521543
0.000415265
0.0003223
0.000242069
0.000174063
0.000117948
7.38618e-05
4.24098e-05
2.44913e-05
1.50677e-05
8.67731e-06
4.48285e-06
1.94646e-06
6.24284e-07
1.03635e-07
1.36422e-09
0.00404643
0.00362617
0.00324108
0.00288793
0.00256439
0.00226813
0.00199698
0.001749
0.00152248
0.00131592
0.00112801
0.000957626
0.000803752
0.000665508
0.000542107
0.000432848
0.000337095
0.000254268
0.000183851
0.000125482
7.92376e-05
4.57551e-05
2.58824e-05
1.59249e-05
9.18791e-06
4.76026e-06
2.07418e-06
6.6797e-07
1.11452e-07
1.47707e-09
0.00412139
0.00369515
0.00330399
0.00294521
0.00261647
0.00231542
0.00203985
0.00178777
0.00155743
0.00134732
0.00115608
0.000982578
0.000825777
0.000684782
0.000558801
0.000447122
0.000349108
0.000264177
0.000191808
0.000131622
8.36462e-05
4.85242e-05
2.70255e-05
1.6629e-05
9.60825e-06
4.98953e-06
2.18024e-06
7.04437e-07
1.18017e-07
1.57256e-09
0.00417827
0.00374753
0.00335177
0.00298872
0.00265604
0.00235135
0.00207241
0.0018172
0.00158397
0.00137114
0.00117738
0.0010015
0.000842475
0.000699393
0.000571453
0.000457941
0.000358214
0.00027169
0.000197846
0.000136288
8.70118e-05
5.0653e-05
2.79e-05
1.71676e-05
9.93029e-06
5.16573e-06
2.26205e-06
7.32684e-07
1.23125e-07
1.64733e-09
0.00421652
0.00378276
0.00338392
0.00301799
0.00268266
0.00237551
0.00209431
0.001837
0.00160181
0.00138716
0.00119169
0.00101421
0.00085369
0.000709205
0.000579949
0.000465205
0.000364329
0.000276736
0.000201902
0.000139427
8.92823e-05
5.20961e-05
2.84909e-05
1.75315e-05
1.01482e-05
5.2852e-06
2.31768e-06
7.51947e-07
1.26621e-07
1.69871e-09
0.00423574
0.00380047
0.00340008
0.00303272
0.00269605
0.00238767
0.00210532
0.00184695
0.00161077
0.0013952
0.00119888
0.0010206
0.000859322
0.000714131
0.000584215
0.000468853
0.000367399
0.00027927
0.00020394
0.000141005
9.04254e-05
5.28247e-05
2.87887e-05
1.77149e-05
1.02581e-05
5.34554e-06
2.34582e-06
7.6171e-07
1.28396e-07
1.72488e-09
0.00423574
0.00380047
0.00340008
0.00303272
0.00269605
0.00238767
0.00210532
0.00184695
0.00161077
0.0013952
0.00119888
0.0010206
0.000859322
0.000714131
0.000584215
0.000468853
0.000367399
0.00027927
0.00020394
0.000141005
9.04254e-05
5.28247e-05
2.87887e-05
1.77149e-05
1.02581e-05
5.34554e-06
2.34582e-06
7.6171e-07
1.28396e-07
1.72488e-09
0.00421652
0.00378276
0.00338392
0.00301799
0.00268266
0.00237551
0.00209431
0.001837
0.00160181
0.00138716
0.00119169
0.00101421
0.00085369
0.000709205
0.000579949
0.000465205
0.000364329