/*--------------------------------*- C++ -*----------------------------------*\
| =========                 |                                                 |
| \\      /  F ield         | OpenFOAM: The Open Source CFD Toolbox           |
|  \\    /   O peration     | Version:  2306                                  |
|   \\  /    A nd           | Website:  www.openfoam.com                      |
|    \\/     M anipulation  |                                                 |
\*---------------------------------------------------------------------------*/
FoamFile
{
    version     2.0;
    format      ascii;
    arch        "LSB;label=32;scalar=64";
    class       volScalarField;
    location    "12336";
    object      p;
}
// * * * * * * * * * * * * * * * * * * * * * * * * * * * * * * * * * * * * * //

dimensions      [0 2 -2 0 0 0 0];

internalField   nonuniform List<scalar> 
2800
(
1.60538e-16
7.07427e-16
7.14811e-16
7.064e-16
7.02452e-16
7.09236e-16
7.14747e-16
7.16478e-16
7.17758e-16
7.17049e-16
7.14801e-16
7.23498e-16
7.32499e-16
7.32057e-16
7.24093e-16
7.30101e-16
7.32097e-16
7.34435e-16
7.26909e-16
7.31381e-16
6.9821e-16
7.16723e-16
7.21353e-16
7.03232e-16
7.0618e-16
7.13954e-16
6.93043e-16
7.27193e-16
7.11478e-16
7.09298e-16
7.00232e-16
7.3151e-16
7.26274e-16
7.46294e-16
7.50246e-16
7.42488e-16
7.30306e-16
7.30398e-16
7.31714e-16
7.35885e-16
7.14965e-16
7.23334e-16
7.18373e-16
7.13334e-16
7.06169e-16
7.13672e-16
7.16733e-16
7.27659e-16
7.38415e-16
7.28474e-16
7.40296e-16
7.29152e-16
7.1036e-16
7.27465e-16
7.1877e-16
7.19869e-16
7.24944e-16
7.26683e-16
7.27018e-16
7.30894e-16
7.11167e-16
7.19377e-16
7.15324e-16
7.1516e-16
7.03773e-16
7.0727e-16
7.1443e-16
6.92356e-16
7.24964e-16
7.44699e-16
7.43712e-16
7.12369e-16
7.34678e-16
7.34357e-16
7.3194e-16
7.29369e-16
7.02994e-16
7.08792e-16
7.24023e-16
7.43176e-16
7.19613e-16
7.18828e-16
7.13781e-16
7.24191e-16
7.17727e-16
7.1874e-16
7.43565e-16
7.21523e-16
7.46469e-16
7.19962e-16
7.18473e-16
7.04706e-16
7.44974e-16
7.44803e-16
7.64485e-16
7.17076e-16
6.9686e-16
7.14384e-16
7.26515e-16
7.21205e-16
7.25674e-16
7.16557e-16
7.16863e-16
7.1031e-16
7.01998e-16
7.08082e-16
7.18986e-16
7.22987e-16
7.16028e-16
7.34631e-16
7.26131e-16
7.41434e-16
7.37891e-16
7.20188e-16
7.53413e-16
7.35299e-16
7.29923e-16
7.29308e-16
7.30712e-16
7.35728e-16
7.2379e-16
7.32107e-16
7.20195e-16
7.22157e-16
6.88666e-16
7.10867e-16
7.21952e-16
7.14605e-16
7.16217e-16
7.29933e-16
7.54066e-16
7.59817e-16
7.63759e-16
7.23559e-16
7.5511e-16
7.08645e-16
7.21602e-16
7.19233e-16
7.0939e-16
7.06993e-16
7.27989e-16
7.02522e-16
7.2339e-16
7.66059e-16
7.25915e-16
7.25967e-16
7.43602e-16
7.42899e-16
7.29607e-16
7.13664e-16
7.58479e-16
7.40955e-16
7.15588e-16
7.21622e-16
7.37922e-16
7.21913e-16
7.07365e-16
7.15429e-16
7.097e-16
7.36119e-16
7.26405e-16
7.20829e-16
7.05777e-16
7.32231e-16
7.02324e-16
7.24802e-16
7.43918e-16
7.41038e-16
7.22966e-16
7.41635e-16
7.16174e-16
7.26449e-16
7.21033e-16
6.88744e-16
7.31781e-16
6.94237e-16
7.08667e-16
7.05463e-16
7.08303e-16
7.08188e-16
7.26343e-16
7.29314e-16
7.273e-16
7.28236e-16
7.23786e-16
7.26669e-16
7.44232e-16
7.36018e-16
7.25596e-16
7.29595e-16
7.20095e-16
7.26776e-16
7.3176e-16
7.05268e-16
7.21939e-16
7.16401e-16
7.25524e-16
7.05221e-16
7.20776e-16
7.28303e-16
7.26408e-16
7.0715e-16
7.28173e-16
7.29518e-16
7.18178e-16
7.36055e-16
7.07187e-16
7.28971e-16
7.3462e-16
7.30624e-16
7.32142e-16
7.27521e-16
7.12747e-16
7.22069e-16
7.12777e-16
7.24237e-16
7.1167e-16
7.06827e-16
7.13513e-16
7.19438e-16
7.26865e-16
7.22227e-16
7.2827e-16
7.41735e-16
7.39276e-16
7.27282e-16
7.04768e-16
7.38548e-16
7.30493e-16
7.47818e-16
7.01958e-16
7.359e-16
7.27833e-16
7.34835e-16
7.23552e-16
7.35406e-16
7.12312e-16
6.98687e-16
7.24242e-16
7.32112e-16
7.08617e-16
7.30181e-16
7.38567e-16
7.33666e-16
7.29252e-16
7.27469e-16
7.09915e-16
7.52111e-16
7.44615e-16
7.42311e-16
6.82272e-16
7.24694e-16
7.28144e-16
7.24095e-16
7.11574e-16
7.35708e-16
7.25282e-16
7.09485e-16
7.18129e-16
7.17767e-16
7.21133e-16
7.09512e-16
7.23661e-16
7.24114e-16
7.37547e-16
7.43782e-16
7.38397e-16
7.30652e-16
7.57207e-16
7.32013e-16
7.05709e-16
6.88425e-16
7.11815e-16
7.214e-16
7.05612e-16
7.07694e-16
7.03364e-16
7.1611e-16
7.1644e-16
7.02424e-16
7.22823e-16
7.07824e-16
7.23183e-16
7.21064e-16
7.12003e-16
6.89202e-16
6.89096e-16
7.16836e-16
7.00359e-16
7.23655e-16
7.41686e-16
7.14686e-16
7.10071e-16
7.0321e-16
6.97793e-16
7.2696e-16
7.0381e-16
7.10208e-16
7.21364e-16
7.1481e-16
7.23438e-16
7.1245e-16
7.21976e-16
7.24941e-16
7.40638e-16
7.12095e-16
7.36199e-16
7.23697e-16
7.29695e-16
7.3848e-16
6.99126e-16
6.96699e-16
6.9033e-16
7.06191e-16
6.90008e-16
7.13171e-16
7.17388e-16
7.09087e-16
7.40006e-16
7.21496e-16
7.22466e-16
7.22141e-16
7.19865e-16
7.39647e-16
7.50463e-16
7.18971e-16
7.17753e-16
7.30325e-16
7.15451e-16
6.9814e-16
6.82513e-16
7.03207e-16
6.89009e-16
7.01305e-16
7.04368e-16
6.93468e-16
7.17374e-16
7.08491e-16
7.15236e-16
7.21054e-16
7.23987e-16
7.25123e-16
7.23714e-16
7.3185e-16
7.15973e-16
7.15026e-16
7.2474e-16
7.28442e-16
7.23343e-16
7.15658e-16
7.13026e-16
7.07479e-16
7.01234e-16
7.09834e-16
7.1511e-16
7.0937e-16
7.17592e-16
7.16057e-16
7.01174e-16
7.19087e-16
7.38596e-16
7.18692e-16
7.24537e-16
7.214e-16
7.1566e-16
7.1553e-16
7.34657e-16
7.34708e-16
7.11614e-16
7.27037e-16
7.25596e-16
7.14695e-16
7.15192e-16
7.22742e-16
7.23083e-16
6.8455e-16
7.21121e-16
7.33875e-16
7.20499e-16
7.15584e-16
7.26765e-16
7.2026e-16
7.21095e-16
7.06603e-16
7.23069e-16
7.04885e-16
7.33784e-16
7.07319e-16
7.2879e-16
7.1938e-16
7.18341e-16
7.09241e-16
7.18863e-16
7.34819e-16
7.29217e-16
7.22227e-16
7.31496e-16
7.28097e-16
7.30361e-16
7.27585e-16
7.4626e-16
7.38227e-16
7.4009e-16
7.32246e-16
7.29976e-16
7.22726e-16
7.20952e-16
7.2424e-16
7.21031e-16
7.19049e-16
7.23307e-16
7.26211e-16
7.24143e-16
7.2517e-16
7.25074e-16
7.23848e-16
7.236e-16
7.23964e-16
7.2267e-16
7.21852e-16
7.21724e-16
7.2206e-16
7.22129e-16
7.22265e-16
7.22147e-16
7.22067e-16
7.22064e-16
7.2207e-16
7.22066e-16
7.22041e-16
7.35043e-16
7.29539e-16
7.20824e-16
7.31125e-16
7.23191e-16
7.24757e-16
7.24687e-16
7.18098e-16
7.21888e-16
7.20462e-16
7.23503e-16
7.226e-16
7.20298e-16
7.20611e-16
7.21247e-16
7.22473e-16
7.19786e-16
7.19208e-16
7.19817e-16
7.1946e-16
7.19669e-16
7.19468e-16
7.19712e-16
7.19352e-16
7.19224e-16
7.19464e-16
7.19502e-16
7.19509e-16
7.19512e-16
7.19456e-16
7.23442e-16
7.27846e-16
7.18889e-16
7.30292e-16
7.29181e-16
7.23539e-16
7.21934e-16
7.20661e-16
7.22442e-16
7.22104e-16
7.17446e-16
7.15196e-16
7.16528e-16
7.1633e-16
7.17869e-16
7.17465e-16
7.17575e-16
7.18452e-16
7.18481e-16
7.18268e-16
7.18089e-16
7.18451e-16
7.18258e-16
7.18265e-16
7.18796e-16
7.18971e-16
7.18904e-16
7.1896e-16
7.19e-16
7.18971e-16
7.19601e-16
7.24985e-16
7.17826e-16
7.21034e-16
7.20337e-16
7.21475e-16
7.29764e-16
7.18943e-16
7.19287e-16
7.1681e-16
7.16266e-16
7.14943e-16
7.1736e-16
7.18679e-16
7.15629e-16
7.15225e-16
7.16423e-16
7.16969e-16
7.17218e-16
7.17652e-16
7.17791e-16
7.17679e-16
7.17673e-16
7.17593e-16
7.17488e-16
7.17891e-16
7.18159e-16
7.17852e-16
7.17934e-16
7.17948e-16
7.22521e-16
7.2128e-16
7.19537e-16
7.24151e-16
7.20773e-16
7.18146e-16
7.10468e-16
7.15201e-16
7.20941e-16
7.17159e-16
7.1359e-16
7.14067e-16
7.15343e-16
7.18159e-16
7.15513e-16
7.13344e-16
7.15257e-16
7.1581e-16
7.15008e-16
7.15008e-16
7.15683e-16
7.15342e-16
7.15007e-16
7.15639e-16
7.15707e-16
7.15615e-16
7.15617e-16
7.1564e-16
7.15617e-16
7.15666e-16
7.25776e-16
7.39647e-16
7.44093e-16
7.22562e-16
7.19239e-16
7.24051e-16
7.20887e-16
7.22779e-16
7.22564e-16
7.19938e-16
7.19114e-16
7.17192e-16
7.18066e-16
7.18289e-16
7.18735e-16
7.18184e-16
7.17737e-16
7.17052e-16
7.17429e-16
7.17548e-16
7.17967e-16
7.17737e-16
7.17522e-16
7.17556e-16
7.17683e-16
7.17615e-16
7.17652e-16
7.17666e-16
7.17633e-16
7.17631e-16
7.1877e-16
7.38741e-16
7.20745e-16
7.15336e-16
7.21969e-16
7.15e-16
7.19745e-16
7.23761e-16
7.22195e-16
7.21021e-16
7.22505e-16
7.19857e-16
7.17518e-16
7.19674e-16
7.19952e-16
7.19784e-16
7.20301e-16
7.19268e-16
7.18853e-16
7.18381e-16
7.18412e-16
7.18406e-16
7.18779e-16
7.19067e-16
7.18844e-16
7.18707e-16
7.18726e-16
7.18784e-16
7.18809e-16
7.18818e-16
7.2843e-16
7.29115e-16
7.23315e-16
7.15241e-16
7.07726e-16
7.20118e-16
7.19469e-16
7.13979e-16
7.14309e-16
7.15208e-16
7.16906e-16
7.216e-16
7.20669e-16
7.23345e-16
7.24094e-16
7.24837e-16
7.23171e-16
7.22244e-16
7.22411e-16
7.22538e-16
7.22993e-16
7.22888e-16
7.22735e-16
7.22923e-16
7.22675e-16
7.22672e-16
7.22738e-16
7.22732e-16
7.22682e-16
7.22696e-16
7.22637e-16
7.11782e-16
7.305e-16
7.27378e-16
7.29976e-16
7.23583e-16
7.28235e-16
7.31372e-16
7.22959e-16
7.26828e-16
7.22958e-16
7.23987e-16
7.25429e-16
7.24789e-16
7.24629e-16
7.26877e-16
7.26217e-16
7.26411e-16
7.25986e-16
7.26084e-16
7.26165e-16
7.25723e-16
7.25682e-16
7.25802e-16
7.25747e-16
7.25721e-16
7.25677e-16
7.25663e-16
7.25682e-16
7.2567e-16
7.32569e-16
7.47297e-16
7.43874e-16
7.23813e-16
7.36691e-16
7.29567e-16
7.4123e-16
7.38965e-16
7.33173e-16
7.34507e-16
7.35246e-16
7.35775e-16
7.36221e-16
7.3652e-16
7.35722e-16
7.35313e-16
7.36128e-16
7.35215e-16
7.35007e-16
7.34457e-16
7.34956e-16
7.35208e-16
7.35326e-16
7.35469e-16
7.35512e-16
7.35585e-16
7.35551e-16
7.3555e-16
7.35579e-16
7.35604e-16
7.1984e-16
7.1629e-16
7.24315e-16
7.24757e-16
7.31857e-16
7.35176e-16
7.30592e-16
7.27524e-16
7.29208e-16
7.26889e-16
7.28333e-16
7.27612e-16
7.30185e-16
7.31089e-16
7.28899e-16
7.31059e-16
7.3016e-16
7.30871e-16
7.30394e-16
7.29677e-16
7.30301e-16
7.30543e-16
7.3064e-16
7.30592e-16
7.30651e-16
7.30718e-16
7.30653e-16
7.30641e-16
7.30654e-16
7.30631e-16
7.2147e-16
7.27076e-16
7.32949e-16
7.34875e-16
7.36814e-16
7.36229e-16
7.34109e-16
7.27291e-16
7.37544e-16
7.36677e-16
7.35771e-16
7.34541e-16
7.38693e-16
7.40242e-16
7.37442e-16
7.37554e-16
7.37491e-16
7.36985e-16
7.37379e-16
7.37371e-16
7.37423e-16
7.37681e-16
7.37712e-16
7.37607e-16
7.37558e-16
7.376e-16
7.3762e-16
7.37659e-16
7.37644e-16
7.37653e-16
7.26888e-16
7.22829e-16
7.13587e-16
7.29884e-16
7.34173e-16
7.27005e-16
7.26523e-16
7.21438e-16
7.2538e-16
7.29538e-16
7.28987e-16
7.31124e-16
7.31929e-16
7.32355e-16
7.33287e-16
7.3131e-16
7.32e-16
7.31851e-16
7.31623e-16
7.31607e-16
7.31096e-16
7.31451e-16
7.31671e-16
7.31284e-16
7.31393e-16
7.31383e-16
7.31351e-16
7.31416e-16
7.31426e-16
7.31396e-16
7.16297e-16
7.07179e-16
7.36455e-16
7.25452e-16
7.21325e-16
7.25357e-16
7.27602e-16
7.29934e-16
7.35256e-16
7.32551e-16
7.3373e-16
7.31733e-16
7.33822e-16
7.33446e-16
7.31634e-16
7.32817e-16
7.33391e-16
7.3164e-16
7.31358e-16
7.32445e-16
7.32648e-16
7.32545e-16
7.32325e-16
7.3214e-16
7.32226e-16
7.32213e-16
7.32289e-16
7.32257e-16
7.32268e-16
7.32285e-16
7.2123e-16
7.29132e-16
7.41388e-16
7.30412e-16
7.26303e-16
7.29462e-16
7.24799e-16
7.21736e-16
7.23557e-16
7.28242e-16
7.28632e-16
7.28899e-16
7.28406e-16
7.27161e-16
7.2741e-16
7.26947e-16
7.25854e-16
7.26547e-16
7.27148e-16
7.27283e-16
7.26629e-16
7.26544e-16
7.26821e-16
7.26907e-16
7.26858e-16
7.26849e-16
7.26751e-16
7.26787e-16
7.26848e-16
7.2688e-16
7.03729e-16
7.17746e-16
7.13346e-16
7.16727e-16
7.1981e-16
7.15657e-16
7.15086e-16
7.18902e-16
7.23615e-16
7.22957e-16
7.21733e-16
7.22268e-16
7.22961e-16
7.21716e-16
7.23737e-16
7.24539e-16
7.23002e-16
7.22725e-16
7.23896e-16
7.23606e-16
7.23014e-16
7.23664e-16
7.24319e-16
7.23713e-16
7.23675e-16
7.238e-16
7.23868e-16
7.23866e-16
7.23859e-16
7.23859e-16
7.25341e-16
7.21926e-16
7.17993e-16
7.21793e-16
7.2581e-16
7.23065e-16
7.19136e-16
7.18369e-16
7.22691e-16
7.22937e-16
7.24391e-16
7.22808e-16
7.22193e-16
7.20083e-16
7.22675e-16
7.21942e-16
7.20946e-16
7.22472e-16
7.22667e-16
7.22862e-16
7.22322e-16
7.22248e-16
7.22459e-16
7.22806e-16
7.23135e-16
7.22706e-16
7.2254e-16
7.22681e-16
7.22715e-16
7.22695e-16
7.26536e-16
7.27937e-16
7.30105e-16
7.21711e-16
7.25024e-16
7.19142e-16
7.16168e-16
7.22338e-16
7.20862e-16
7.19163e-16
7.22404e-16
7.22191e-16
7.22001e-16
7.21905e-16
7.22346e-16
7.23385e-16
7.22336e-16
7.21743e-16
7.21431e-16
7.22085e-16
7.22192e-16
7.2158e-16
7.21964e-16
7.21954e-16
7.21804e-16
7.21697e-16
7.21615e-16
7.21568e-16
7.21591e-16
7.21657e-16
7.33823e-16
7.29898e-16
7.28465e-16
7.18699e-16
7.30953e-16
7.27099e-16
7.27804e-16
7.28363e-16
7.25667e-16
7.2567e-16
7.23757e-16
7.21875e-16
7.23667e-16
7.25379e-16
7.23437e-16
7.21152e-16
7.23845e-16
7.242e-16
7.23077e-16
7.23321e-16
7.23364e-16
7.23106e-16
7.22545e-16
7.23077e-16
7.23293e-16
7.23093e-16
7.23043e-16
7.23136e-16
7.23101e-16
7.23134e-16
7.24485e-16
7.2699e-16
7.20606e-16
7.21632e-16
7.20988e-16
7.19712e-16
7.28082e-16
7.26452e-16
7.31346e-16
7.32654e-16
7.25903e-16
7.23596e-16
7.23232e-16
7.23143e-16
7.24328e-16
7.25011e-16
7.24507e-16
7.23324e-16
7.24334e-16
7.24558e-16
7.24592e-16
7.24706e-16
7.24562e-16
7.2464e-16
7.24632e-16
7.24546e-16
7.24608e-16
7.24644e-16
7.24655e-16
7.24694e-16
7.21071e-16
7.19359e-16
7.22718e-16
7.31434e-16
7.33932e-16
7.35703e-16
7.32051e-16
7.26469e-16
7.29114e-16
7.28904e-16
7.29462e-16
7.27307e-16
7.24608e-16
7.23843e-16
7.2465e-16
7.23416e-16
7.24119e-16
7.24484e-16
7.24004e-16
7.23644e-16
7.23886e-16
7.24094e-16
7.239e-16
7.24047e-16
7.23897e-16
7.24185e-16
7.24107e-16
7.24013e-16
7.24025e-16
7.24009e-16
7.16155e-16
7.26819e-16
7.36792e-16
7.31781e-16
7.27564e-16
7.32834e-16
7.32472e-16
7.31278e-16
7.3092e-16
7.29025e-16
7.33074e-16
7.31208e-16
7.31137e-16
7.28985e-16
7.28726e-16
7.28742e-16
7.2751e-16
7.26788e-16
7.26105e-16
7.26255e-16
7.26339e-16
7.26597e-16
7.26229e-16
7.26127e-16
7.25969e-16
7.26154e-16
7.25811e-16
7.25801e-16
7.25957e-16
7.2596e-16
7.32236e-16
7.35729e-16
7.23913e-16
7.34761e-16
7.36621e-16
7.29424e-16
7.30102e-16
7.32308e-16
7.24857e-16
7.24215e-16
7.21865e-16
7.23539e-16
7.25859e-16
7.21682e-16
7.20423e-16
7.20848e-16
7.17974e-16
7.19456e-16
7.19361e-16
7.19215e-16
7.19033e-16
7.18709e-16
7.19211e-16
7.19388e-16
7.19428e-16
7.1917e-16
7.19008e-16
7.19034e-16
7.19073e-16
7.19127e-16
7.14004e-16
7.40958e-16
7.22108e-16
7.35383e-16
7.20433e-16
7.2509e-16
7.1863e-16
7.18663e-16
7.18508e-16
7.17648e-16
7.208e-16
7.19875e-16
7.1744e-16
7.18481e-16
7.19505e-16
7.18584e-16
7.1703e-16
7.17812e-16
7.16908e-16
7.16446e-16
7.1563e-16
7.15874e-16
7.16333e-16
7.1641e-16
7.16308e-16
7.16127e-16
7.16287e-16
7.16349e-16
7.16184e-16
7.16154e-16
7.22953e-16
7.23834e-16
7.23131e-16
7.2545e-16
7.28078e-16
7.21361e-16
7.2465e-16
7.22296e-16
7.24084e-16
7.1692e-16
7.14281e-16
7.10667e-16
7.11892e-16
7.12076e-16
7.10648e-16
7.09645e-16
7.11146e-16
7.11652e-16
7.11622e-16
7.09966e-16
7.10683e-16
7.10846e-16
7.10507e-16
7.10414e-16
7.10314e-16
7.10266e-16
7.10341e-16
7.10336e-16
7.10173e-16
7.10203e-16
7.19077e-16
7.4116e-16
7.42625e-16
7.29935e-16
7.23804e-16
7.19257e-16
7.23295e-16
7.15513e-16
7.11618e-16
7.10534e-16
7.13799e-16
7.16883e-16
7.11705e-16
7.11453e-16
7.11916e-16
7.09412e-16
7.09685e-16
7.09423e-16
7.07946e-16
7.08082e-16
7.08368e-16
7.08471e-16
7.08507e-16
7.0901e-16
7.08438e-16
7.08214e-16
7.08432e-16
7.08503e-16
7.08454e-16
7.08432e-16
7.16731e-16
7.25126e-16
7.21267e-16
7.21786e-16
7.18602e-16
7.10918e-16
7.12057e-16
7.0733e-16
7.08604e-16
7.08575e-16
7.08102e-16
7.06248e-16
7.05065e-16
7.07196e-16
7.06305e-16
7.06453e-16
7.05913e-16
7.06539e-16
7.05599e-16
7.05279e-16
7.05558e-16
7.054e-16
7.05618e-16
7.0544e-16
7.05301e-16
7.05145e-16
7.05134e-16
7.05202e-16
7.05215e-16
7.05224e-16
7.16643e-16
7.17561e-16
7.14207e-16
7.28158e-16
7.14375e-16
7.17098e-16
7.16226e-16
7.08673e-16
7.15435e-16
7.13578e-16
7.10667e-16
7.07686e-16
7.06831e-16
7.09312e-16
7.07969e-16
7.05721e-16
7.05571e-16
7.05401e-16
7.05688e-16
7.05723e-16
7.05719e-16
7.0602e-16
7.05592e-16
7.05701e-16
7.05947e-16
7.05871e-16
7.05836e-16
7.05844e-16
7.05847e-16
7.05847e-16
7.04171e-16
7.28596e-16
7.03441e-16
7.16067e-16
7.19452e-16
7.17967e-16
7.19466e-16
7.19147e-16
7.09129e-16
7.14674e-16
7.12903e-16
7.11238e-16
7.09687e-16
7.08993e-16
7.08812e-16
7.0837e-16
7.0934e-16
7.10463e-16
7.09442e-16
7.09415e-16
7.0988e-16
7.09664e-16
7.09689e-16
7.09521e-16
7.09578e-16
7.09645e-16
7.0967e-16
7.09647e-16
7.09637e-16
7.09654e-16
7.20458e-16
7.10078e-16
7.14322e-16
7.11046e-16
7.13393e-16
7.18493e-16
7.14483e-16
7.15888e-16
7.21591e-16
7.16805e-16
7.16062e-16
7.16399e-16
7.18798e-16
7.16017e-16
7.16723e-16
7.17797e-16
7.18192e-16
7.17087e-16
7.16431e-16
7.1609e-16
7.16263e-16
7.16095e-16
7.16256e-16
7.16343e-16
7.16427e-16
7.1636e-16
7.16394e-16
7.16396e-16
7.16417e-16
7.16424e-16
7.20482e-16
7.11879e-16
7.15744e-16
7.16952e-16
7.2769e-16
7.21499e-16
7.19099e-16
7.2331e-16
7.16594e-16
7.17453e-16
7.19247e-16
7.22006e-16
7.1992e-16
7.21333e-16
7.20619e-16
7.18798e-16
7.19801e-16
7.21493e-16
7.20307e-16
7.19985e-16
7.19838e-16
7.19961e-16
7.19791e-16
7.1993e-16
7.20043e-16
7.20002e-16
7.20031e-16
7.19979e-16
7.19987e-16
7.20015e-16
7.40073e-16
7.24863e-16
7.21572e-16
7.21704e-16
7.2261e-16
7.25917e-16
7.24044e-16
7.22002e-16
7.21841e-16
7.21396e-16
7.21971e-16
7.23056e-16
7.21793e-16
7.22152e-16
7.22327e-16
7.22967e-16
7.23835e-16
7.22592e-16
7.22913e-16
7.22458e-16
7.22127e-16
7.22136e-16
7.22406e-16
7.22508e-16
7.22474e-16
7.22427e-16
7.22491e-16
7.22507e-16
7.22507e-16
7.22468e-16
7.1534e-16
7.20612e-16
7.20524e-16
7.23579e-16
7.23285e-16
7.23698e-16
7.27142e-16
7.30668e-16
7.29395e-16
7.27818e-16
7.32729e-16
7.30464e-16
7.29677e-16
7.29263e-16
7.2844e-16
7.30211e-16
7.31348e-16
7.29321e-16
7.28392e-16
7.28499e-16
7.28428e-16
7.28296e-16
7.28409e-16
7.28444e-16
7.28179e-16
7.28287e-16
7.28348e-16
7.28345e-16
7.28332e-16
7.28333e-16
7.27718e-16
7.23305e-16
7.12555e-16
7.22327e-16
7.3285e-16
7.29764e-16
7.27389e-16
7.26329e-16
7.32765e-16
7.30042e-16
7.27047e-16
7.29861e-16
7.28444e-16
7.28661e-16
7.29231e-16
7.28245e-16
7.28454e-16
7.2715e-16
7.28582e-16
7.29579e-16
7.28593e-16
7.28487e-16
7.28373e-16
7.28367e-16
7.28382e-16
7.2843e-16
7.28487e-16
7.28445e-16
7.28405e-16
7.28343e-16
7.10637e-16
7.38819e-16
7.45746e-16
7.30738e-16
7.27016e-16
7.33661e-16
7.25522e-16
7.29924e-16
7.31837e-16
7.39817e-16
7.36421e-16
7.32584e-16
7.33541e-16
7.34441e-16
7.35391e-16
7.35765e-16
7.34124e-16
7.34126e-16
7.33962e-16
7.34142e-16
7.33936e-16
7.33619e-16
7.33577e-16
7.33033e-16
7.33549e-16
7.33754e-16
7.33563e-16
7.3355e-16
7.33543e-16
7.33539e-16
7.31083e-16
7.29738e-16
7.30511e-16
7.23494e-16
7.33928e-16
7.34451e-16
7.36819e-16
7.39212e-16
7.40234e-16
7.37994e-16
7.36729e-16
7.37568e-16
7.37578e-16
7.35991e-16
7.31286e-16
7.32471e-16
7.32196e-16
7.33737e-16
7.34354e-16
7.34873e-16
7.33916e-16
7.33762e-16
7.33943e-16
7.341e-16
7.34081e-16
7.33853e-16
7.33804e-16
7.33775e-16
7.33903e-16
7.33912e-16
7.22631e-16
7.40941e-16
7.47018e-16
7.40327e-16
7.44871e-16
7.44344e-16
7.46264e-16
7.43227e-16
7.43307e-16
7.41506e-16
7.41517e-16
7.37878e-16
7.40064e-16
7.42049e-16
7.37475e-16
7.38698e-16
7.39347e-16
7.37889e-16
7.38493e-16
7.38643e-16
7.39341e-16
7.39053e-16
7.39054e-16
7.3887e-16
7.38763e-16
7.38921e-16
7.38753e-16
7.38672e-16
7.38798e-16
7.38842e-16
7.25055e-16
7.35681e-16
7.32573e-16
7.37379e-16
7.44131e-16
7.42596e-16
7.36659e-16
7.32959e-16
7.36168e-16
7.34482e-16
7.38679e-16
7.38404e-16
7.37062e-16
7.38826e-16
7.39417e-16
7.37952e-16
7.40073e-16
7.38343e-16
7.38385e-16
7.38401e-16
7.38479e-16
7.38611e-16
7.3774e-16
7.37646e-16
7.37772e-16
7.38018e-16
7.38208e-16
7.38095e-16
7.38127e-16
7.38084e-16
7.27459e-16
7.28676e-16
7.26402e-16
7.28782e-16
7.24111e-16
7.2936e-16
7.39638e-16
7.41507e-16
7.42002e-16
7.41104e-16
7.40943e-16
7.46889e-16
7.42542e-16
7.44406e-16
7.44199e-16
7.42416e-16
7.43496e-16
7.42781e-16
7.43122e-16
7.43005e-16
7.42553e-16
7.42329e-16
7.42534e-16
7.42311e-16
7.42386e-16
7.42246e-16
7.42492e-16
7.42523e-16
7.42388e-16
7.42326e-16
7.12391e-16
7.18485e-16
7.26337e-16
7.28502e-16
7.26079e-16
7.26406e-16
7.33092e-16
7.35062e-16
7.31841e-16
7.34472e-16
7.34343e-16
7.34215e-16
7.36546e-16
7.37895e-16
7.38394e-16
7.3812e-16
7.37273e-16
7.36747e-16
7.37172e-16
7.3781e-16
7.37876e-16
7.37638e-16
7.3759e-16
7.37224e-16
7.37382e-16
7.37372e-16
7.37537e-16
7.37502e-16
7.37508e-16
7.37489e-16
7.3794e-16
7.25279e-16
7.26431e-16
7.30561e-16
7.27773e-16
7.19351e-16
7.21362e-16
7.27773e-16
7.22733e-16
7.21867e-16
7.28241e-16
7.31737e-16
7.30811e-16
7.33411e-16
7.3467e-16
7.34516e-16
7.34906e-16
7.35753e-16
7.34784e-16
7.34436e-16
7.34537e-16
7.34935e-16
7.35133e-16
7.35324e-16
7.35233e-16
7.35194e-16
7.35178e-16
7.35176e-16
7.35169e-16
7.35139e-16
7.30239e-16
7.22085e-16
7.16152e-16
7.27215e-16
7.22686e-16
7.26915e-16
7.29993e-16
7.25547e-16
7.29366e-16
7.28332e-16
7.31955e-16
7.30828e-16
7.29747e-16
7.30823e-16
7.32136e-16
7.33954e-16
7.31537e-16
7.31428e-16
7.32416e-16
7.3227e-16
7.32581e-16
7.32466e-16
7.32732e-16
7.32386e-16
7.3228e-16
7.32535e-16
7.32579e-16
7.32581e-16
7.32591e-16
7.3254e-16
7.22903e-16
7.25777e-16
7.16469e-16
7.26786e-16
7.31336e-16
7.27183e-16
7.26825e-16
7.27774e-16
7.30462e-16
7.32843e-16
7.28615e-16
7.26642e-16
7.2905e-16
7.29455e-16
7.31162e-16
7.3099e-16
7.3109e-16
7.31957e-16
7.31878e-16
7.31506e-16
7.3132e-16
7.316e-16
7.3134e-16
7.31248e-16
7.317e-16
7.31805e-16
7.317e-16
7.31729e-16
7.31747e-16
7.31701e-16
7.1322e-16
7.23544e-16
7.2015e-16
7.2397e-16
7.24892e-16
7.27775e-16
7.37742e-16
7.30188e-16
7.32453e-16
7.31118e-16
7.31868e-16
7.31854e-16
7.3494e-16
7.36401e-16
7.33024e-16
7.32068e-16
7.32798e-16
7.32952e-16
7.32878e-16
7.33053e-16
7.33056e-16
7.32828e-16
7.32728e-16
7.32573e-16
7.32425e-16
7.32802e-16
7.33058e-16
7.32727e-16
7.32804e-16
7.32815e-16
7.22404e-16
7.21053e-16
7.20019e-16
7.29797e-16
7.2724e-16
7.26054e-16
7.20745e-16
7.25709e-16
7.3369e-16
7.31354e-16
7.29372e-16
7.30535e-16
7.31537e-16
7.34865e-16
7.3188e-16
7.29516e-16
7.31365e-16
7.31699e-16
7.30724e-16
7.30481e-16
7.31099e-16
7.30677e-16
7.30274e-16
7.30841e-16
7.30858e-16
7.30726e-16
7.30695e-16
7.30681e-16
7.30648e-16
7.30695e-16
7.30171e-16
7.3926e-16
7.45417e-16
7.28959e-16
7.25852e-16
7.29511e-16
7.26885e-16
7.28509e-16
7.3125e-16
7.30686e-16
7.31139e-16
7.30603e-16
7.32031e-16
7.31879e-16
7.32167e-16
7.31698e-16
7.30999e-16
7.3028e-16
7.30613e-16
7.30665e-16
7.3105e-16
7.30815e-16
7.30599e-16
7.30638e-16
7.30733e-16
7.30632e-16
7.3064e-16
7.30634e-16
7.3059e-16
7.30566e-16
7.24247e-16
7.37588e-16
7.23439e-16
7.22332e-16
7.32142e-16
7.25066e-16
7.27635e-16
7.33481e-16
7.31974e-16
7.30628e-16
7.32244e-16
7.29779e-16
7.27581e-16
7.29746e-16
7.30139e-16
7.30059e-16
7.31034e-16
7.30247e-16
7.29756e-16
7.29225e-16
7.292e-16
7.28996e-16
7.29301e-16
7.2958e-16
7.29346e-16
7.29192e-16
7.29204e-16
7.29263e-16
7.29287e-16
7.29292e-16
7.25308e-16
7.25182e-16
7.25454e-16
7.22743e-16
7.1859e-16
7.2957e-16
7.26292e-16
7.19528e-16
7.19984e-16
7.22605e-16
7.24234e-16
7.28613e-16
7.27787e-16
7.29965e-16
7.30622e-16
7.3131e-16
7.29572e-16
7.28613e-16
7.28785e-16
7.28976e-16
7.29447e-16
7.29291e-16
7.29174e-16
7.29346e-16
7.29063e-16
7.29016e-16
7.29057e-16
7.29032e-16
7.28967e-16
7.28955e-16
7.15361e-16
7.12243e-16
7.32667e-16
7.29204e-16
7.31858e-16
7.25908e-16
7.28425e-16
7.33942e-16
7.25056e-16
7.2713e-16
7.23174e-16
7.25513e-16
7.26434e-16
7.24754e-16
7.24511e-16
7.26625e-16
7.26225e-16
7.26941e-16
7.26549e-16
7.26685e-16
7.26914e-16
7.26608e-16
7.2662e-16
7.26766e-16
7.26735e-16
7.26733e-16
7.267e-16
7.26702e-16
7.26729e-16
7.26725e-16
7.34798e-16
7.47151e-16
7.38229e-16
7.19667e-16
7.29761e-16
7.23437e-16
7.29655e-16
7.30064e-16
7.25605e-16
7.27691e-16
7.28465e-16
7.28832e-16
7.28909e-16
7.295e-16
7.28857e-16
7.28196e-16
7.2917e-16
7.28383e-16
7.2802e-16
7.27347e-16
7.27778e-16
7.27873e-16
7.27778e-16
7.27759e-16
7.27733e-16
7.27763e-16
7.27698e-16
7.27668e-16
7.2767e-16
7.27669e-16
7.24599e-16
7.18554e-16
7.20584e-16
7.15842e-16
7.20632e-16
7.21689e-16
7.17584e-16
7.17758e-16
7.18908e-16
7.17419e-16
7.19673e-16
7.19754e-16
7.23364e-16
7.24745e-16
7.23496e-16
7.25471e-16
7.2434e-16
7.24694e-16
7.23956e-16
7.23055e-16
7.23673e-16
7.2387e-16
7.23932e-16
7.23938e-16
7.23978e-16
7.24043e-16
7.23989e-16
7.24e-16
7.24026e-16
7.24026e-16
7.29227e-16
7.33021e-16
7.31271e-16
7.27893e-16
7.24065e-16
7.23832e-16
7.24097e-16
7.16209e-16
7.25702e-16
7.25031e-16
7.2434e-16
7.23363e-16
7.26783e-16
7.27632e-16
7.25414e-16
7.25838e-16
7.25766e-16
7.25211e-16
7.25532e-16
7.25429e-16
7.25577e-16
7.25828e-16
7.25744e-16
7.25559e-16
7.25468e-16
7.2549e-16
7.25496e-16
7.25518e-16
7.25493e-16
7.25486e-16
7.32693e-16
7.2544e-16
7.11715e-16
7.27528e-16
7.31659e-16
7.23249e-16
7.19391e-16
7.11465e-16
7.15327e-16
7.18234e-16
7.16429e-16
7.19047e-16
7.20244e-16
7.21055e-16
7.22365e-16
7.20992e-16
7.22277e-16
7.22775e-16
7.22749e-16
7.22823e-16
7.22335e-16
7.2272e-16
7.22982e-16
7.22613e-16
7.2271e-16
7.22705e-16
7.22678e-16
7.22756e-16
7.22768e-16
7.22752e-16
7.21197e-16
7.10169e-16
7.4198e-16
7.27491e-16
7.22554e-16
7.23167e-16
7.22794e-16
7.23e-16
7.26644e-16
7.25397e-16
7.26432e-16
7.22556e-16
7.24098e-16
7.24152e-16
7.23256e-16
7.24366e-16
7.2467e-16
7.22984e-16
7.22534e-16
7.23608e-16
7.23846e-16
7.23767e-16
7.23583e-16
7.23435e-16
7.23547e-16
7.23545e-16
7.23639e-16
7.23614e-16
7.23629e-16
7.2364e-16
7.30809e-16
7.34815e-16
7.46663e-16
7.32302e-16
7.26448e-16
7.27767e-16
7.21814e-16
7.16989e-16
7.16039e-16
7.21052e-16
7.21507e-16
7.22864e-16
7.23118e-16
7.22405e-16
7.22686e-16
7.22532e-16
7.21478e-16
7.22301e-16
7.2278e-16
7.2282e-16
7.22118e-16
7.2208e-16
7.22338e-16
7.22411e-16
7.2233e-16
7.22297e-16
7.22195e-16
7.22222e-16
7.22294e-16
7.22323e-16
7.13695e-16
7.25855e-16
7.21466e-16
7.20002e-16
7.22212e-16
7.18038e-16
7.17952e-16
7.20008e-16
7.25556e-16
7.25384e-16
7.23391e-16
7.23547e-16
7.24572e-16
7.22443e-16
7.24304e-16
7.24998e-16
7.2293e-16
7.22264e-16
7.23157e-16
7.22599e-16
7.21855e-16
7.22427e-16
7.23052e-16
7.22429e-16
7.22343e-16
7.22438e-16
7.22475e-16
7.22454e-16
7.22435e-16
7.22429e-16
7.32788e-16
7.30683e-16
7.27918e-16
7.25978e-16
7.28235e-16
7.24656e-16
7.22768e-16
7.2207e-16
7.25437e-16
7.27257e-16
7.28117e-16
7.25586e-16
7.24433e-16
7.22004e-16
7.24029e-16
7.22918e-16
7.21335e-16
7.2236e-16
7.22582e-16
7.22706e-16
7.22021e-16
7.21803e-16
7.21974e-16
7.2229e-16
7.2262e-16
7.2218e-16
7.22001e-16
7.22142e-16
7.22171e-16
7.22155e-16
7.32704e-16
7.36379e-16
7.35002e-16
7.21581e-16
7.26646e-16
7.1979e-16
7.19193e-16
7.24805e-16
7.22508e-16
7.21078e-16
7.23562e-16
7.22547e-16
7.21592e-16
7.21022e-16
7.21526e-16
7.22365e-16
7.21142e-16
7.2036e-16
7.1979e-16
7.20306e-16
7.20341e-16
7.19678e-16
7.20056e-16
7.20083e-16
7.1994e-16
7.19851e-16
7.19762e-16
7.19712e-16
7.1972e-16
7.19777e-16
7.6795e-16
7.48448e-16
7.34301e-16
7.18098e-16
7.3017e-16
7.27202e-16
7.30283e-16
7.3338e-16
7.27829e-16
7.27358e-16
7.25228e-16
7.21782e-16
7.21528e-16
7.22213e-16
7.19387e-16
7.17229e-16
7.19426e-16
7.19689e-16
7.18461e-16
7.18631e-16
7.18541e-16
7.18314e-16
7.17738e-16
7.18286e-16
7.18477e-16
7.18221e-16
7.18131e-16
7.18195e-16
7.18152e-16
7.18178e-16
7.10064e-16
7.18302e-16
7.06861e-16
7.11134e-16
7.13148e-16
7.13157e-16
7.22621e-16
7.20041e-16
7.23574e-16
7.24349e-16
7.17176e-16
7.1438e-16
7.13162e-16
7.12837e-16
7.13504e-16
7.13995e-16
7.13319e-16
7.11708e-16
7.12417e-16
7.1242e-16
7.12246e-16
7.12153e-16
7.11913e-16
7.11925e-16
7.11878e-16
7.1175e-16
7.11768e-16
7.11772e-16
7.1176e-16
7.11773e-16
6.9689e-16
7.04586e-16
7.00201e-16
7.16029e-16
7.21962e-16
7.23663e-16
7.22657e-16
7.15306e-16
7.16382e-16
7.14758e-16
7.1501e-16
7.12046e-16
7.10748e-16
7.10721e-16
7.1142e-16
7.1051e-16
7.1132e-16
7.11793e-16
7.11279e-16
7.10932e-16
7.11065e-16
7.11186e-16
7.10926e-16
7.11057e-16
7.10862e-16
7.11104e-16
7.10995e-16
7.10881e-16
7.10881e-16
7.1086e-16
7.36087e-16
7.35322e-16
7.36026e-16
7.24221e-16
7.1629e-16
7.18454e-16
7.15586e-16
7.14785e-16
7.13749e-16
7.11599e-16
7.15969e-16
7.13467e-16
7.1289e-16
7.10786e-16
7.10743e-16
7.11132e-16
7.09843e-16
7.0924e-16
7.08709e-16
7.08973e-16
7.09127e-16
7.09557e-16
7.09278e-16
7.09219e-16
7.09073e-16
7.09272e-16
7.08939e-16
7.08917e-16
7.09069e-16
7.09065e-16
7.24902e-16
7.27934e-16
7.15464e-16
7.24118e-16
7.2723e-16
7.14872e-16
7.17223e-16
7.21374e-16
7.14087e-16
7.12918e-16
7.10135e-16
7.12154e-16
7.14991e-16
7.11415e-16
7.10828e-16
7.1146e-16
7.08591e-16
7.10189e-16
7.09842e-16
7.0955e-16
7.09237e-16
7.0883e-16
7.09287e-16
7.09436e-16
7.09461e-16
7.09188e-16
7.09017e-16
7.09038e-16
7.0908e-16
7.09148e-16
6.97861e-16
7.25875e-16
7.12334e-16
7.21288e-16
7.08155e-16
7.09438e-16
7.0252e-16
7.04941e-16
7.05787e-16
7.0617e-16
7.09107e-16
7.07738e-16
7.04625e-16
7.06393e-16
7.07882e-16
7.07175e-16
7.05497e-16
7.06311e-16
7.05325e-16
7.04818e-16
7.039e-16
7.04116e-16
7.04609e-16
7.04659e-16
7.04525e-16
7.04355e-16
7.04514e-16
7.04576e-16
7.04414e-16
7.04386e-16
7.04955e-16
7.10464e-16
7.10142e-16
7.13383e-16
7.14821e-16
7.10771e-16
7.15163e-16
7.14476e-16
7.17943e-16
7.11798e-16
7.08982e-16
7.06245e-16
7.07696e-16
7.08134e-16
7.06956e-16
7.06386e-16
7.07888e-16
7.08392e-16
7.0855e-16
7.0702e-16
7.0775e-16
7.0797e-16
7.07713e-16
7.07692e-16
7.07651e-16
7.07657e-16
7.07752e-16
7.07755e-16
7.07607e-16
7.07647e-16
6.98339e-16
7.25976e-16
7.25604e-16
7.12277e-16
7.06346e-16
7.05663e-16
7.14112e-16
7.09564e-16
7.09884e-16
7.09343e-16
7.13047e-16
7.17356e-16
7.12769e-16
7.13002e-16
7.14362e-16
7.12429e-16
7.13171e-16
7.13569e-16
7.12487e-16
7.1265e-16
7.12924e-16
7.13015e-16
7.13106e-16
7.13635e-16
7.13056e-16
7.12848e-16
7.13076e-16
7.13142e-16
7.13088e-16
7.13068e-16
7.02271e-16
7.16573e-16
7.10067e-16
7.09333e-16
7.11978e-16
7.08054e-16
7.14769e-16
7.11264e-16
7.13687e-16
7.1402e-16
7.14079e-16
7.12792e-16
7.13126e-16
7.15278e-16
7.15484e-16
7.16373e-16
7.16103e-16
7.1676e-16
7.15951e-16
7.15869e-16
7.16276e-16
7.16144e-16
7.16448e-16
7.1631e-16
7.16205e-16
7.16078e-16
7.16081e-16
7.16178e-16
7.16202e-16
7.16216e-16
7.06746e-16
7.05423e-16
7.06387e-16
7.20302e-16
7.10148e-16
7.16588e-16
7.20117e-16
7.1466e-16
7.24545e-16
7.23096e-16
7.20765e-16
7.17177e-16
7.1606e-16
7.19237e-16
7.18446e-16
7.1736e-16
7.17963e-16
7.18135e-16
7.18577e-16
7.18747e-16
7.1892e-16
7.19385e-16
7.19059e-16
7.19269e-16
7.19541e-16
7.19511e-16
7.19503e-16
7.19538e-16
7.19568e-16
7.19584e-16
7.04652e-16
7.20309e-16
6.98998e-16
7.11272e-16
7.15434e-16
7.17727e-16
7.19625e-16
7.19576e-16