/*--------------------------------*- C++ -*----------------------------------*\
| =========                 |                                                 |
| \\      /  F ield         | OpenFOAM: The Open Source CFD Toolbox           |
|  \\    /   O peration     | Version:  2306                                  |
|   \\  /    A nd           | Website:  www.openfoam.com                      |
|    \\/     M anipulation  |                                                 |
\*---------------------------------------------------------------------------*/
FoamFile
{
    version     2.0;
    format      ascii;
    arch        "LSB;label=32;scalar=64";
    class       volVectorField;
    location    "12336";
    object      U;
}
// * * * * * * * * * * * * * * * * * * * * * * * * * * * * * * * * * * * * * //

dimensions      [0 1 -1 0 0 0 0];

internalField   nonuniform List<vector> 
2800
(
(1.13564e-16 8.79128e-17 0.736201)
(-6.87037e-16 -3.30723e-17 0.740087)
(-2.70349e-16 1.52056e-17 0.743619)
(-1.66912e-16 -6.57989e-18 0.74667)
(-1.53214e-16 -2.38248e-17 0.749241)
(-1.49198e-16 -4.12356e-17 0.751347)
(-1.3989e-16 -3.96061e-17 0.753008)
(-1.25065e-16 -6.892e-17 0.754238)
(-1.0347e-16 -6.14526e-17 0.755052)
(-9.43279e-17 -4.90326e-17 0.755456)
(-1.0793e-16 -3.63946e-17 0.755456)
(-1.10422e-16 -4.40246e-17 0.755052)
(-8.80163e-17 -6.76528e-17 0.754238)
(-6.8595e-17 -8.31772e-17 0.753008)
(-5.48073e-17 -9.36292e-17 0.751347)
(-4.99384e-17 -6.88824e-17 0.749241)
(-3.979e-17 -4.0737e-17 0.74667)
(-3.54878e-17 -3.90189e-17 0.743619)
(-4.49941e-17 -4.59492e-17 0.740087)
(-6.78429e-17 -5.79854e-17 0.736201)
(1.84947e-18 -6.98141e-16 0.740098)
(-2.3818e-16 -2.52976e-16 0.745076)
(-2.1934e-16 -1.22591e-16 0.749247)
(-1.66216e-16 -8.38686e-17 0.752776)
(-1.5946e-16 -7.1889e-17 0.755723)
(-1.33579e-16 -6.64242e-17 0.758124)
(-1.4524e-16 -6.9039e-17 0.760009)
(-1.36724e-16 -8.21508e-17 0.761402)
(-8.54616e-17 -9.16664e-17 0.762321)
(-7.37873e-17 -8.00755e-17 0.762777)
(-1.04413e-16 -7.69848e-17 0.762777)
(-1.12101e-16 -4.79421e-17 0.762321)
(-9.39514e-17 -3.34579e-17 0.761402)
(-8.84911e-17 -4.39857e-17 0.760009)
(-5.81648e-17 -4.18857e-17 0.758124)
(-2.88858e-17 -3.41429e-17 0.755723)
(-2.64963e-17 -2.10068e-17 0.752776)
(-4.54867e-17 -1.91548e-17 0.749247)
(-6.34438e-17 -2.82643e-17 0.745076)
(-5.88665e-17 -4.29288e-17 0.740098)
(1.65255e-17 -3.03762e-16 0.743633)
(-1.13899e-16 -2.52775e-16 0.749253)
(-1.41553e-16 -1.65073e-16 0.75396)
(-1.32308e-16 -1.29476e-16 0.757892)
(-1.32615e-16 -9.38083e-17 0.761142)
(-1.36428e-16 -8.59604e-17 0.763772)
(-1.43284e-16 -9.31499e-17 0.765828)
(-1.35404e-16 -5.30834e-17 0.767341)
(-9.46402e-17 -8.09896e-17 0.768337)
(-7.18771e-17 -9.58938e-17 0.768831)
(-6.41898e-17 -9.27903e-17 0.768831)
(-5.32036e-17 -4.28776e-17 0.768337)
(-7.42736e-17 -4.77312e-17 0.767341)
(-7.16292e-17 -4.34988e-17 0.765828)
(-4.53175e-17 -3.91137e-17 0.763772)
(-3.85003e-17 -2.10662e-17 0.761142)
(-4.3676e-17 -1.24188e-19 0.757892)
(-6.15465e-17 -6.49678e-18 0.75396)
(-7.29979e-17 -2.67885e-17 0.749253)
(-5.28665e-17 -4.4064e-17 0.743633)
(-4.35816e-18 -2.00011e-16 0.746685)
(-7.51723e-17 -1.95571e-16 0.752785)
(-1.02488e-16 -1.58052e-16 0.757895)
(-9.79628e-17 -1.31841e-16 0.762143)
(-1.09031e-16 -1.09528e-16 0.765632)
(-1.23863e-16 -1.02909e-16 0.768439)
(-1.01432e-16 -1.07172e-16 0.770624)
(-1.12136e-16 -6.70515e-17 0.772227)
(-1.2232e-16 -6.15068e-17 0.773279)
(-8.16063e-17 -6.03555e-17 0.7738)
(-4.29256e-17 -4.40429e-17 0.7738)
(-5.65449e-17 -3.6804e-17 0.773279)
(-8.18767e-17 -8.04442e-17 0.772227)
(-6.6434e-17 -7.91958e-17 0.770624)
(-2.74383e-17 -1.00284e-16 0.768439)
(3.39419e-18 -5.10272e-17 0.765632)
(-2.52236e-17 -1.70006e-17 0.762143)
(-7.91043e-17 -2.27366e-17 0.757895)
(-9.4005e-17 -3.08699e-17 0.752785)
(-5.28656e-17 -3.37762e-17 0.746685)
(-3.35178e-17 -1.78374e-16 0.749256)
(-6.03401e-17 -1.68152e-16 0.755733)
(-8.23912e-17 -1.4641e-16 0.761147)
(-8.3262e-17 -1.18132e-16 0.765634)
(-9.67571e-17 -9.79464e-17 0.769304)
(-1.26744e-16 -9.32114e-17 0.772246)
(-9.81585e-17 -9.67057e-17 0.774525)
(-8.0012e-17 -8.83351e-17 0.776193)
(-8.1605e-17 -6.16148e-17 0.777286)
(-5.31254e-17 -4.90673e-17 0.777826)
(-3.99919e-17 -6.34117e-17 0.777826)
(-8.59363e-17 -8.74749e-17 0.777286)
(-1.071e-16 -7.44652e-17 0.776193)
(-7.80926e-17 -5.42849e-17 0.774525)
(-6.08314e-18 -8.17549e-17 0.772246)
(4.5226e-17 -7.44937e-17 0.769304)
(-2.21746e-17 -6.78574e-17 0.765634)
(-7.75101e-17 -5.86398e-17 0.761147)
(-7.34796e-17 -3.37813e-17 0.755733)
(-5.28481e-17 -2.57249e-17 0.749256)
(-3.14672e-17 -1.56586e-16 0.751362)
(-4.99548e-17 -1.5445e-16 0.758134)
(-6.15956e-17 -1.46741e-16 0.763779)
(-5.41168e-17 -1.31725e-16 0.768443)
(-7.81586e-17 -9.86714e-17 0.772247)
(-1.15425e-16 -9.21832e-17 0.775286)
(-9.28062e-17 -8.12134e-17 0.777634)
(-7.25214e-17 -8.3604e-17 0.779348)
(-7.6098e-17 -6.50722e-17 0.780469)
(-8.04909e-17 -7.44707e-17 0.781023)
(-8.15502e-17 -1.0792e-16 0.781023)
(-6.36722e-17 -1.24998e-16 0.780469)
(-4.10844e-17 -8.71396e-17 0.779348)
(-6.25803e-17 -4.64809e-17 0.777634)
(-4.15939e-17 -4.74895e-17 0.775286)
(1.16973e-17 -4.94874e-17 0.772247)
(-1.76922e-17 -7.29929e-17 0.768443)
(-4.63346e-17 -4.73358e-17 0.763779)
(-5.86585e-17 -1.26253e-17 0.758134)
(-5.96879e-17 -1.17837e-17 0.751362)
(-5.05535e-17 -1.41368e-16 0.753021)
(-6.0286e-17 -1.33035e-16 0.760019)
(-7.42158e-17 -1.48359e-16 0.765834)
(-4.92901e-17 -1.77375e-16 0.770628)
(-6.03036e-17 -1.50246e-16 0.774528)
(-1.07095e-16 -1.36945e-16 0.777635)
(-9.02699e-17 -1.33795e-16 0.780031)
(-6.33422e-17 -1.25617e-16 0.781777)
(-7.04305e-17 -9.46726e-17 0.782916)
(-9.47981e-17 -7.73857e-17 0.783479)
(-8.8633e-17 -8.39231e-17 0.783479)
(-5.91265e-17 -6.20982e-17 0.782916)
(-2.30067e-17 -4.75033e-17 0.781777)
(-3.44892e-17 -4.32596e-17 0.780031)
(-9.55627e-18 -3.46298e-17 0.777635)
(1.28042e-17 -2.93692e-17 0.774528)
(-3.10745e-17 -3.74065e-17 0.770628)
(-2.84676e-17 -2.43867e-17 0.765834)
(-4.58589e-17 -1.43878e-17 0.760019)
(-6.57266e-17 -1.52603e-17 0.753021)
(-3.43146e-17 -1.3087e-16 0.75425)
(-6.83301e-17 -1.19786e-16 0.761411)
(-1.19271e-16 -1.14837e-16 0.767348)
(-7.21482e-17 -1.28791e-16 0.772231)
(-4.94813e-17 -1.31376e-16 0.776196)
(-1.04241e-16 -1.33283e-16 0.77935)
(-8.81376e-17 -1.27482e-16 0.781777)
(-3.75108e-17 -1.19305e-16 0.783543)
(-2.84774e-17 -9.54811e-17 0.784695)
(-6.75934e-17 -8.32428e-17 0.785264)
(-6.36985e-17 -3.50607e-17 0.785264)
(-2.66626e-17 -2.81844e-17 0.784695)
(-2.38639e-17 -1.39337e-17 0.783543)
(-4.91321e-17 -6.10444e-18 0.781777)
(-2.83556e-17 -1.87264e-17 0.77935)
(1.64027e-18 -4.23774e-17 0.776196)
(-2.32298e-17 -4.31762e-17 0.772231)
(-3.12628e-17 -2.93023e-17 0.767348)
(-5.57731e-17 -3.72394e-17 0.761411)
(-6.52211e-17 -3.47133e-17 0.75425)
(-4.28536e-17 -1.18583e-16 0.755063)
(-5.34813e-17 -1.22868e-16 0.76233)
(-9.32404e-17 -1.1254e-16 0.768344)
(-7.67882e-17 -8.57981e-17 0.773284)
(-7.27715e-17 -1.06459e-16 0.777289)
(-1.07212e-16 -1.01313e-16 0.780471)
(-8.19814e-17 -7.82566e-17 0.782917)
(-3.58335e-17 -6.89769e-17 0.784696)
(-3.54068e-17 -7.77319e-17 0.785855)
(-3.25878e-17 -8.04401e-17 0.786426)
(-3.20954e-17 -4.59e-17 0.786426)
(-3.87372e-17 -5.58689e-17 0.785855)
(-4.81579e-18 -6.72028e-17 0.784696)
(-4.14483e-17 -5.65647e-17 0.782917)
(-4.5224e-17 -5.2045e-17 0.780471)
(-1.2018e-17 -7.2202e-17 0.777289)
(-1.98639e-17 -6.94329e-17 0.773284)
(-2.30332e-17 -4.75097e-17 0.768344)
(-5.00677e-17 -6.2219e-17 0.76233)
(-5.67628e-17 -4.94805e-17 0.755063)
(-5.63876e-17 -1.05515e-16 0.755467)
(-7.41111e-17 -1.02064e-16 0.762786)
(-9.41063e-17 -1.2119e-16 0.768838)
(-7.71634e-17 -1.01632e-16 0.773805)
(-7.14433e-17 -1.01556e-16 0.77783)
(-8.06106e-17 -8.19117e-17 0.781025)
(-6.00985e-17 -4.65763e-17 0.78348)
(-4.03957e-17 -5.85004e-17 0.785264)
(-4.19432e-17 -7.73874e-17 0.786426)
(-3.57336e-17 -6.69967e-17 0.786999)
(-3.85756e-17 -6.75218e-17 0.786999)
(-4.74128e-17 -6.88422e-17 0.786426)
(-2.37988e-17 -6.75049e-17 0.785264)
(-3.11654e-17 -9.88151e-17 0.78348)
(-3.77714e-17 -7.94871e-17 0.781025)
(-9.64918e-18 -1.00256e-16 0.77783)
(6.91014e-18 -7.87188e-17 0.773805)
(-1.58675e-17 -6.9807e-17 0.768838)
(-5.09158e-17 -7.06398e-17 0.762786)
(-3.91018e-17 -5.59433e-17 0.755467)
(-3.88991e-17 -9.04966e-17 0.755467)
(-8.0584e-17 -9.69531e-17 0.762786)
(-1.04378e-16 -9.97313e-17 0.768838)
(-7.15108e-17 -9.9213e-17 0.773805)
(-6.2488e-17 -9.4155e-17 0.77783)
(-5.85369e-17 -7.20566e-17 0.781025)
(-6.29305e-17 -4.50113e-17 0.78348)
(-6.9143e-17 -7.70358e-17 0.785264)
(-4.57274e-17 -7.98724e-17 0.786426)
(-2.35578e-17 -7.59032e-17 0.786999)
(-3.38108e-17 -5.36479e-17 0.786999)
(-3.77152e-17 -6.1639e-17 0.786426)
(-3.16693e-17 -5.79768e-17 0.785264)
(-4.85986e-17 -8.9905e-17 0.78348)
(-3.71488e-17 -8.08261e-17 0.781025)
(-1.7573e-18 -8.8537e-17 0.77783)
(2.13928e-17 -7.3701e-17 0.773805)
(-2.39122e-18 -6.75566e-17 0.768838)
(-2.55903e-17 -7.03145e-17 0.762786)
(-1.52812e-17 -4.12664e-17 0.755467)
(-7.02482e-17 -7.28685e-17 0.755063)
(-9.45842e-17 -1.02313e-16 0.76233)
(-1.08523e-16 -9.34846e-17 0.768344)
(-8.41988e-17 -8.20578e-17 0.773284)
(-5.43517e-17 -8.88277e-17 0.777289)
(-3.85651e-17 -7.14506e-17 0.780471)
(-7.02594e-17 -6.79783e-17 0.782917)
(-7.8363e-17 -7.86707e-17 0.784696)
(-4.29409e-17 -8.06236e-17 0.785855)
(-9.83401e-18 -5.99425e-17 0.786426)
(-2.38519e-17 -2.26286e-17 0.786426)
(-5.09907e-17 -2.42399e-17 0.785855)
(-4.88233e-17 -4.53541e-17 0.784696)
(-4.93423e-17 -5.86256e-17 0.782917)
(-2.77361e-17 -4.44514e-17 0.780471)
(6.82426e-18 -6.0555e-17 0.777289)
(4.03061e-17 -6.57136e-17 0.773284)
(1.81582e-18 -6.37796e-17 0.768344)
(-1.4086e-17 -5.41948e-17 0.76233)
(1.13128e-17 -3.15326e-17 0.755063)
(-7.47544e-17 -8.28413e-17 0.75425)
(-1.13477e-16 -6.28603e-17 0.761411)
(-9.92854e-17 -6.00189e-17 0.767348)
(-7.93101e-17 -5.00367e-17 0.772231)
(-6.06534e-17 -6.54042e-17 0.776196)
(-4.60646e-17 -6.15309e-17 0.77935)
(-7.74062e-17 -6.55437e-17 0.781777)
(-8.75051e-17 -4.72835e-17 0.783543)
(-2.86598e-17 -5.59637e-17 0.784695)
(3.606e-17 -2.68467e-17 0.785264)
(3.27618e-18 -1.87625e-17 0.785264)
(-6.03683e-17 2.22833e-17 0.784695)
(-6.55393e-17 8.0971e-20 0.783543)
(-4.60195e-17 -2.90374e-18 0.781777)
(-3.39942e-17 1.32969e-17 0.77935)
(-1.53621e-17 -1.77616e-18 0.776196)
(3.17614e-17 -1.77964e-17 0.772231)
(2.32717e-17 -4.54283e-17 0.767348)
(1.62808e-17 -2.39718e-17 0.761411)
(1.47301e-17 -7.5898e-18 0.75425)
(-4.44928e-17 -9.61474e-17 0.753021)
(-8.7698e-17 -4.58531e-17 0.760019)
(-1.05447e-16 -4.02491e-17 0.765834)
(-9.82675e-17 -3.7284e-17 0.770628)
(-7.26347e-17 -3.45681e-17 0.774528)
(-4.77648e-17 -1.29804e-17 0.777635)
(-6.50884e-17 -1.92644e-17 0.780031)
(-7.53331e-17 -6.55301e-19 0.781777)
(-2.25424e-17 1.10974e-17 0.782916)
(3.14808e-17 -8.3162e-18 0.783479)
(2.87536e-17 -4.90257e-17 0.783479)
(-3.2796e-17 -5.59886e-18 0.782916)
(-7.87023e-17 1.48835e-17 0.781777)
(-4.02528e-17 3.45338e-17 0.780031)
(-2.91791e-17 3.59138e-17 0.777635)
(-2.45587e-17 2.48329e-17 0.774528)
(4.69683e-18 1.45746e-17 0.770628)
(4.26771e-18 -1.63317e-17 0.765834)
(2.85083e-17 -2.36004e-17 0.760019)
(2.97543e-17 -1.1774e-17 0.753021)
(-2.88973e-17 -8.76067e-17 0.751362)
(-7.43949e-17 -7.16008e-17 0.758134)
(-9.84902e-17 -5.91433e-17 0.763779)
(-7.67498e-17 -5.49555e-17 0.768443)
(-3.72213e-17 -4.40891e-17 0.772247)
(-3.43353e-17 -2.75008e-17 0.775286)
(-7.08693e-17 -3.24138e-17 0.777634)
(-5.95599e-17 -1.80067e-17 0.779348)
(-3.34121e-17 -6.30249e-19 0.780469)
(-1.82133e-17 -1.1852e-17 0.781023)
(1.22323e-17 -8.39597e-18 0.781023)
(5.82494e-18 -9.82023e-18 0.780469)
(-3.01972e-17 2.87698e-17 0.779348)
(-3.37464e-17 4.09532e-17 0.777634)
(-5.45348e-17 2.88095e-17 0.775286)
(-4.59413e-17 2.3741e-17 0.772247)
(-1.05627e-17 5.71126e-18 0.768443)
(-1.00207e-17 1.28788e-18 0.763779)
(2.22145e-17 -1.56068e-17 0.758134)
(3.46962e-17 -2.08936e-17 0.751362)
(-4.84447e-17 -8.05611e-17 0.749256)
(-7.55098e-17 -8.9604e-17 0.755733)
(-9.93567e-17 -6.78944e-17 0.761147)
(-8.48675e-17 -7.19198e-17 0.765634)
(-4.45162e-17 -7.57387e-17 0.769304)
(-3.85663e-17 -7.21328e-17 0.772246)
(-5.93185e-17 -6.07822e-17 0.774525)
(-4.21447e-17 -4.24668e-17 0.776193)
(-9.84507e-18 -1.76885e-17 0.777286)
(3.52207e-17 1.72575e-17 0.777826)
(4.23959e-17 3.06348e-17 0.777826)
(8.92771e-18 1.33733e-17 0.777286)
(-3.22777e-17 2.44274e-17 0.776193)
(-5.06286e-17 1.37568e-17 0.774525)
(-6.0866e-17 9.80504e-18 0.772246)
(-6.18943e-17 3.61183e-17 0.769304)
(-2.6994e-17 1.35441e-17 0.765634)
(-1.62315e-17 2.04488e-17 0.761147)
(1.23381e-17 2.34963e-17 0.755733)
(5.80598e-17 2.31019e-18 0.749256)
(-7.40886e-17 -7.86568e-17 0.746685)
(-8.22908e-17 -8.0408e-17 0.752785)
(-1.00182e-16 -5.42464e-17 0.757895)
(-9.39877e-17 -3.96146e-17 0.762143)
(-4.35098e-17 -2.6106e-17 0.765632)
(-2.63861e-17 -3.29987e-17 0.768439)
(-4.79966e-17 -2.7801e-17 0.770624)
(-1.36047e-17 -1.95209e-17 0.772227)
(3.85345e-17 -3.85402e-18 0.773279)
(4.43556e-17 -3.83861e-18 0.7738)
(1.91493e-17 -2.49697e-17 0.7738)
(5.98609e-18 -3.1603e-17 0.773279)
(-3.34772e-17 -2.87433e-17 0.772227)
(-6.09472e-17 -2.33325e-17 0.770624)
(-4.92324e-17 -1.90436e-17 0.768439)
(-6.14387e-17 1.39749e-17 0.765632)
(-4.27863e-17 1.39337e-17 0.762143)
(-9.82307e-18 2.24647e-17 0.757895)
(2.88164e-18 5.01599e-17 0.752785)
(2.36933e-17 2.1287e-17 0.746685)
(-7.76933e-17 -7.18698e-17 0.743633)
(-7.78137e-17 -4.37202e-17 0.749253)
(-8.12977e-17 -2.59182e-17 0.75396)
(-6.92397e-17 3.06671e-18 0.757892)
(-4.62629e-17 1.93054e-17 0.761142)
(-5.25393e-17 8.94402e-19 0.763772)
(-5.32191e-17 -1.21977e-17 0.765828)
(-1.11054e-17 -7.8029e-18 0.767341)
(2.06503e-17 -1.8498e-17 0.768337)
(3.04702e-17 -5.82708e-17 0.768831)
(2.83901e-17 -6.48255e-17 0.768831)
(1.38163e-17 -6.44198e-17 0.768337)
(-2.58118e-17 -7.6512e-17 0.767341)
(-5.15322e-17 -5.88934e-17 0.765828)
(-3.78528e-17 -4.19933e-17 0.763772)
(-4.85566e-17 -6.6477e-18 0.761142)
(-4.22989e-17 2.2016e-18 0.757892)
(-2.97328e-18 -1.72851e-18 0.75396)
(-2.91869e-18 1.90145e-17 0.749253)
(-7.84656e-18 2.50322e-17 0.743633)
(-6.10408e-17 -3.55817e-17 0.740098)
(-5.77109e-17 -1.66142e-17 0.745076)
(-6.68645e-17 -5.17537e-18 0.749247)
(-5.61836e-17 1.70833e-17 0.752776)
(-5.02946e-17 1.23432e-17 0.755723)
(-6.88011e-17 1.88377e-17 0.758124)
(-5.93035e-17 1.23206e-17 0.760009)
(-1.08199e-17 2.10978e-17 0.761402)
(2.21425e-18 -1.11786e-17 0.762321)
(1.35273e-17 -2.5642e-17 0.762777)
(2.86994e-17 -4.1195e-17 0.762777)
(5.1092e-18 -5.13451e-17 0.762321)
(-2.41433e-17 -6.97859e-17 0.761402)
(-2.94844e-17 -6.62676e-17 0.760009)
(-1.20943e-18 -4.93604e-17 0.758124)
(-3.31357e-17 -3.88723e-17 0.755723)
(-6.67856e-17 -2.52017e-17 0.752776)
(-1.80923e-17 -9.64776e-18 0.749247)
(1.0627e-17 1.79394e-18 0.745076)
(-6.13521e-18 1.70937e-17 0.740098)
(-4.36663e-17 2.57026e-18 0.736201)
(-5.12855e-17 -1.97431e-17 0.740087)
(-4.88718e-17 -1.60338e-17 0.743619)
(-4.68131e-17 -8.52031e-18 0.74667)
(-4.61186e-17 1.37753e-18 0.749241)
(-5.92107e-17 1.24155e-17 0.751347)
(-5.02464e-17 2.45694e-17 0.753008)
(-2.6668e-17 2.86361e-17 0.754238)
(-1.56242e-17 -1.09847e-17 0.755052)
(1.53894e-17 1.02389e-18 0.755456)
(1.89335e-17 -1.4801e-17 0.755456)
(-2.02989e-18 -2.12388e-17 0.755052)
(-3.47446e-17 -3.66816e-17 0.754238)
(-3.09367e-17 -3.59777e-17 0.753008)
(-5.64371e-18 -3.82097e-17 0.751347)
(-2.44865e-17 -5.5608e-17 0.749241)
(-3.04402e-17 -2.16543e-17 0.74667)
(-9.13671e-19 6.08932e-18 0.743619)
(1.34101e-17 1.81342e-17 0.740087)
(4.88518e-18 2.35557e-17 0.736201)
(-6.04497e-17 -5.97796e-17 0.728523)
(-2.55119e-17 -6.08035e-17 0.718204)
(-1.0739e-17 -6.49472e-17 0.707242)
(-9.37269e-18 -7.71088e-17 0.69567)
(-1.07204e-17 -7.83915e-17 0.683504)
(-2.11869e-17 -6.90025e-17 0.670743)
(-3.9352e-17 -4.88475e-17 0.657369)
(-4.70585e-17 -3.42457e-17 0.643348)
(-5.62026e-17 -2.66629e-17 0.628629)
(-7.32098e-17 -1.10376e-17 0.613138)
(-8.34873e-17 -3.02545e-18 0.59678)
(-7.70567e-17 -5.95116e-18 0.579431)
(-6.78559e-17 -8.77798e-18 0.560936)
(-6.02787e-17 -1.17986e-17 0.541097)
(-4.76987e-17 -1.98505e-17 0.519668)
(-3.78053e-17 -2.60198e-17 0.496341)
(-3.11226e-17 -2.89254e-17 0.470733)
(-2.13934e-17 -3.3363e-17 0.442375)
(-1.42286e-17 -3.52747e-17 0.410711)
(-1.40219e-17 -3.0792e-17 0.375185)
(-1.76998e-17 -2.26618e-17 0.335583)
(-1.84851e-17 -1.71178e-17 0.292854)
(-1.64197e-17 -1.44091e-17 0.249524)
(-1.31159e-17 -1.28753e-17 0.207634)
(-9.88559e-18 -1.14477e-17 0.16793)
(-7.55621e-18 -9.23936e-18 0.130872)
(-5.662e-18 -6.69646e-18 0.0967271)
(-3.69776e-18 -4.29914e-18 0.0655871)
(-1.80522e-18 -2.04386e-18 0.0373918)
(-8.93918e-19 -9.68193e-19 0.0119759)
(-1.48066e-17 -3.49108e-17 0.73244)
(7.94388e-20 -4.15084e-17 0.722301)
(-1.52453e-17 -3.66424e-17 0.711529)
(-2.45126e-17 -5.23036e-17 0.700145)
(-1.8518e-17 -6.88242e-17 0.688164)
(-2.56818e-17 -7.23609e-17 0.675587)
(-2.44192e-17 -7.60728e-17 0.662401)
(-3.67316e-17 -6.65479e-17 0.648576)
(-5.55612e-17 -5.59467e-17 0.634065)
(-5.92227e-17 -4.94854e-17 0.618802)
(-5.66552e-17 -4.32566e-17 0.602695)
(-4.50086e-17 -4.2781e-17 0.585629)
(-4.09858e-17 -4.02865e-17 0.567454)
(-4.37769e-17 -3.35093e-17 0.54798)
(-4.01027e-17 -3.22831e-17 0.52697)
(-2.89853e-17 -3.72744e-17 0.504123)
(-2.09121e-17 -4.02336e-17 0.479064)
(-2.09276e-17 -3.71166e-17 0.451327)
(-2.2538e-17 -3.30494e-17 0.420343)
(-2.18507e-17 -2.99974e-17 0.385495)
(-2.01883e-17 -2.66928e-17 0.346367)
(-1.82079e-17 -2.30931e-17 0.303418)
(-1.4478e-17 -2.08425e-17 0.259129)
(-1.21664e-17 -1.77553e-17 0.216008)
(-1.18794e-17 -1.34021e-17 0.17494)
(-1.06868e-17 -9.81243e-18 0.136469)
(-8.1044e-18 -7.2923e-18 0.100929)
(-5.19467e-18 -4.99301e-18 0.0684612)
(-2.25638e-18 -2.55632e-18 0.0390371)
(-1.33501e-18 -1.46629e-18 0.0125038)
(-2.11418e-17 -3.49064e-17 0.735775)
(-1.24913e-17 -4.02907e-17 0.725835)
(-2.62269e-17 -3.77192e-17 0.715242)
(-3.06265e-17 -3.70251e-17 0.70403)
(-1.28682e-17 -5.31609e-17 0.692214)
(-5.88063e-18 -6.51795e-17 0.679801)
(-8.34921e-18 -7.24152e-17 0.666778)
(-1.59252e-17 -7.29343e-17 0.653122)
(-1.22913e-17 -7.2592e-17 0.638787)
(-2.12011e-18 -7.45943e-17 0.623712)
(-1.80958e-18 -7.17536e-17 0.607811)
(-1.22036e-17 -6.37595e-17 0.590972)
(-2.51852e-17 -5.76955e-17 0.573053)
(-3.21994e-17 -5.37301e-17 0.553871)
(-3.44013e-17 -5.0642e-17 0.533195)
(-3.46986e-17 -4.91125e-17 0.510734)
(-3.5201e-17 -4.88074e-17 0.486124)
(-3.32924e-17 -5.00972e-17 0.458906)
(-2.95211e-17 -5.16276e-17 0.428516)
(-2.61441e-17 -5.21447e-17 0.394305)
(-2.53558e-17 -4.95247e-17 0.355736)
(-2.46285e-17 -4.56971e-17 0.312978)
(-2.51246e-17 -3.9562e-17 0.268134)
(-2.71162e-17 -3.18357e-17 0.223897)
(-2.48826e-17 -2.61689e-17 0.181553)
(-1.97881e-17 -2.19905e-17 0.14175)
(-1.45405e-17 -1.74571e-17 0.10489)
(-9.76599e-18 -1.22658e-17 0.071167)
(-5.13131e-18 -6.48028e-18 0.0405832)
(-2.2035e-18 -3.32793e-18 0.0129985)
(-1.59231e-17 -4.44319e-17 0.738638)
(-1.92578e-17 -4.7795e-17 0.728868)
(-2.88608e-17 -4.75514e-17 0.718434)
(-2.7699e-17 -3.60518e-17 0.707372)
(-2.11397e-17 -3.11718e-17 0.695701)
(-2.10074e-17 -2.66938e-17 0.683429)
(-3.8872e-18 -2.95248e-17 0.670547)
(9.6418e-18 -3.78495e-17 0.657033)
(1.29275e-17 -4.05695e-17 0.642847)
(1.02154e-17 -3.82244e-17 0.62793)
(4.50068e-18 -3.40923e-17 0.612201)
(-3.90576e-18 -2.9382e-17 0.595553)
(-8.47422e-18 -2.62413e-17 0.577848)
(1.02499e-18 -2.92345e-17 0.55891)
(5.88641e-18 -2.76515e-17 0.538516)
(8.65795e-19 -2.04911e-17 0.516383)
(-3.19836e-18 -1.46866e-17 0.492153)
(-3.1961e-18 -1.11973e-17 0.465377)
(-2.36378e-18 -8.28263e-18 0.435492)
(3.97563e-19 -6.9798e-18 0.401835)
(2.95028e-18 -6.08544e-18 0.363777)
(3.61029e-18 -4.39002e-18 0.32126)
(4.02138e-18 -3.26646e-18 0.276011)
(1.62269e-18 -1.09194e-18 0.230836)
(-2.60838e-18 1.72374e-18 0.187395)
(-3.80563e-18 2.64306e-18 0.146431)
(-1.50577e-18 1.54446e-18 0.10841)
(-4.23261e-19 1.29216e-18 0.0735745)
(6.00376e-19 1.6714e-18 0.0419598)
(-5.98175e-19 -6.1761e-19 0.0134391)
(-4.20175e-17 -4.71945e-17 0.741052)
(-4.12246e-17 -7.51473e-17 0.731426)
(-3.24101e-17 -8.19639e-17 0.72113)
(-1.6044e-17 -6.22097e-17 0.710197)
(-4.41813e-18 -5.70243e-17 0.69865)
(1.93323e-18 -5.1784e-17 0.686498)
(-1.36294e-17 -3.93993e-17 0.673735)
(-3.4712e-17 -3.51314e-17 0.660343)
(-2.43309e-17 -3.96357e-17 0.646283)
(-9.37697e-18 -4.5043e-17 0.631499)
(-1.19182e-17 -4.17347e-17 0.615915)
(-2.43194e-17 -3.46514e-17 0.599427)
(-2.97796e-17 -2.9904e-17 0.581903)
(-2.06996e-17 -3.21387e-17 0.56317)
(-1.24357e-17 -3.57949e-17 0.543011)
(-1.71847e-17 -3.32671e-17 0.52115)
(-2.28929e-17 -2.97852e-17 0.497236)
(-2.0287e-17 -2.99855e-17 0.470824)
(-1.87891e-17 -2.99897e-17 0.441357)
(-2.06605e-17 -2.83962e-17 0.408159)
(-1.98059e-17 -2.79554e-17 0.370541)
(-1.81127e-17 -2.70049e-17 0.328267)
(-2.00517e-17 -2.3746e-17 0.282723)
(-1.92914e-17 -2.1146e-17 0.236778)
(-1.4939e-17 -1.94162e-17 0.192416)
(-1.07157e-17 -1.6953e-17 0.150465)
(-7.99824e-18 -1.34495e-17 0.11145)
(-5.4702e-18 -9.54208e-18 0.0756567)
(-3.13821e-18 -5.02409e-18 0.0431513)
(-1.23679e-18 -2.63187e-18 0.0138207)
(-5.8663e-17 -2.24403e-17 0.743033)
(-4.69631e-17 -4.4824e-17 0.73353)
(1.61159e-17 -5.01313e-17 0.723348)
(3.15436e-17 -4.29922e-17 0.712523)
(8.40356e-18 -3.80704e-17 0.70108)
(2.26626e-18 -3.99457e-17 0.689029)
(-9.53408e-18 -4.90117e-17 0.676366)
(-8.26092e-18 -5.23426e-17 0.663075)
(7.11e-18 -5.49212e-17 0.649119)
(1.31878e-17 -5.75776e-17 0.634447)
(1.25374e-17 -5.92669e-17 0.618983)
(5.12915e-18 -5.56344e-17 0.602627)
(-2.06659e-18 -4.99882e-17 0.585251)
(-6.88426e-18 -4.73153e-17 0.566685)
(-6.5024e-18 -4.79589e-17 0.546718)
(-2.96844e-18 -5.02671e-17 0.525078)
(-5.33185e-18 -4.9542e-17 0.501418)
(-1.03123e-17 -4.78996e-17 0.475301)
(-1.5532e-17 -4.60034e-17 0.44617)
(-1.88865e-17 -4.42729e-17 0.413342)
(-1.68817e-17 -4.3874e-17 0.376086)
(-1.46309e-17 -4.30039e-17 0.334032)
(-1.42709e-17 -4.0237e-17 0.288278)
(-1.39962e-17 -3.60158e-17 0.241714)
(-1.21448e-17 -3.14324e-17 0.1966)
(-9.79711e-18 -2.64083e-17 0.153835)
(-7.57044e-18 -2.0922e-17 0.113994)
(-5.22022e-18 -1.51975e-17 0.0774016)
(-2.97218e-18 -9.10895e-18 0.0441506)
(-1.21382e-18 -3.40804e-18 0.0141409)
(-6.65716e-17 -1.37676e-17 0.744598)
(-2.64498e-17 -5.7574e-18 0.735194)
(2.42353e-17 -3.70548e-18 0.725105)
(1.54173e-17 -3.86142e-18 0.714368)
(5.552e-18 3.3996e-18 0.703008)
(-1.14093e-17 1.15218e-18 0.691038)
(-2.20743e-17 4.01818e-18 0.678456)
(-2.18737e-18 9.51507e-18 0.665245)
(1.52714e-17 1.16527e-17 0.651374)
(1.89611e-17 1.16064e-17 0.63679)
(2.57043e-17 9.96834e-18 0.621422)
(3.39682e-17 6.62856e-18 0.605172)
(2.7003e-17 8.70958e-18 0.587912)
(2.00027e-17 1.06915e-17 0.569479)
(2.1088e-17 1.14366e-17 0.549662)
(2.55199e-17 1.10936e-17 0.528194)
(3.15006e-17 1.09224e-17 0.504733)
(3.42782e-17 1.16984e-17 0.478843)
(3.41305e-17 1.27771e-17 0.449972)
(2.87455e-17 1.46039e-17 0.417432)
(1.9962e-17 1.64517e-17 0.380462)
(1.16869e-17 1.73163e-17 0.338593)
(8.92029e-18 1.61002e-17 0.292692)
(1.00731e-17 1.35583e-17 0.245648)
(9.92171e-18 1.11301e-17 0.199943)
(7.5033e-18 9.01794e-18 0.156535)
(4.33563e-18 6.86949e-18 0.116035)
(2.28483e-18 4.32572e-18 0.0788027)
(1.01644e-18 1.58327e-18 0.0449534)
(3.28313e-19 1.11617e-18 0.0143982)
(-4.99393e-17 -2.88765e-17 0.74576)
(-2.33885e-17 -1.38791e-17 0.736431)
(9.45798e-18 -3.21606e-17 0.726412)
(1.16443e-17 -3.91254e-17 0.715741)
(-2.30886e-17 -3.58799e-17 0.704444)
(-3.96294e-17 -3.17806e-17 0.692536)
(-1.8853e-17 -2.67232e-17 0.680014)
(-1.28016e-17 -1.74985e-17 0.666865)
(-3.21194e-17 -4.86385e-18 0.653057)
(-5.00599e-17 4.50846e-18 0.63854)
(-6.02716e-17 1.34075e-17 0.623244)
(-6.43993e-17 1.74489e-17 0.607072)
(-6.1795e-17 1.99789e-17 0.589899)
(-5.4709e-17 2.3203e-17 0.571564)
(-4.19636e-17 2.48473e-17 0.551858)
(-2.60877e-17 2.49917e-17 0.530517)
(-1.3993e-17 2.54849e-17 0.507201)
(-1.14815e-17 2.68835e-17 0.481479)
(-1.38381e-17 2.83181e-17 0.452797)
(-1.64076e-17 2.90609e-17 0.420468)
(-1.46863e-17 2.824e-17 0.383709)
(-9.1897e-18 2.62157e-17 0.341984)
(-5.49681e-18 2.38356e-17 0.295983)
(-1.93489e-18 2.08806e-17 0.248589)
(3.80302e-20 1.76113e-17 0.202448)
(3.96819e-19 1.41276e-17 0.15856)
(6.25595e-19 1.02964e-17 0.117568)
(8.02943e-19 6.24486e-18 0.0798559)
(2.47591e-19 2.19927e-18 0.0455572)
(4.10888e-19 1.65406e-18 0.0145919)
(-5.04087e-17 -4.17103e-17 0.746528)
(-4.66738e-17 -4.74027e-17 0.73725)
(-3.17326e-17 -5.66203e-17 0.727278)
(-2.55161e-17 -5.11865e-17 0.716652)
(-2.61131e-17 -6.62019e-17 0.705398)
(-2.37155e-17 -5.90062e-17 0.69353)
(-1.72096e-17 -6.59845e-17 0.681049)
(2.56437e-18 -6.943e-17 0.667942)
(6.46525e-18 -6.68696e-17 0.654176)
(4.4785e-18 -6.25826e-17 0.639704)
(-8.35415e-19 -6.06729e-17 0.624455)
(-7.68932e-18 -5.68182e-17 0.608336)
(-8.4058e-18 -5.51826e-17 0.591221)
(-1.0143e-17 -5.27242e-17 0.57295)
(-1.58209e-17 -5.0435e-17 0.553317)
(-1.52675e-17 -5.0258e-17 0.532059)
(-1.15459e-17 -5.12697e-17 0.508839)
(-1.10492e-17 -5.25343e-17 0.483226)
(-8.71368e-18 -5.36682e-17 0.454668)
(-6.64118e-18 -5.42966e-17 0.422477)
(-4.07443e-18 -5.45084e-17 0.385858)
(-2.46637e-18 -5.38616e-17 0.34423)
(-4.55805e-18 -5.13021e-17 0.298167)
(-5.14485e-18 -4.69919e-17 0.250544)
(-4.17303e-18 -4.15661e-17 0.204115)
(-3.16366e-18 -3.53572e-17 0.15991)
(-2.53646e-18 -2.87046e-17 0.11859)
(-2.07475e-18 -2.19549e-17 0.0805591)
(-1.44289e-18 -1.53989e-17 0.0459605)
(-3.94859e-19 -3.6842e-18 0.0147212)
(-4.43122e-17 -3.8975e-17 0.746911)
(-4.12003e-17 -2.74656e-17 0.737658)
(9.19558e-18 -2.4533e-17 0.72771)
(-3.4514e-18 -2.19049e-17 0.717106)
(-2.73209e-17 -2.02791e-17 0.705873)
(-2.89128e-17 -1.65617e-17 0.694026)
(-1.7372e-17 -8.62053e-18 0.681566)
(2.19878e-17 -2.44809e-18 0.668479)
(2.93149e-17 -5.38225e-19 0.654735)
(1.50126e-17 3.93191e-18 0.640285)
(9.40036e-18 5.6489e-18 0.62506)
(1.02537e-17 8.04927e-18 0.608966)
(1.34186e-17 8.53775e-18 0.59188)
(2.22465e-17 8.91833e-18 0.573641)
(2.33125e-17 1.03441e-17 0.554045)
(2.39949e-17 1.17106e-17 0.532828)
(2.58658e-17 1.30016e-17 0.509655)
(2.46546e-17 1.43346e-17 0.484096)
(2.25617e-17 1.60528e-17 0.4556)
(1.54877e-17 1.77332e-17 0.423477)
(8.38785e-18 1.86876e-17 0.386927)
(3.72706e-18 1.87136e-17 0.345348)
(3.81313e-19 1.8172e-17 0.299257)
(-5.00736e-19 1.717e-17 0.25152)
(3.88209e-19 1.54037e-17 0.204948)
(9.46979e-19 1.29387e-17 0.160584)
(5.34577e-19 9.92423e-18 0.119102)
(1.44253e-19 6.45666e-18 0.080911)
(-3.53998e-19 2.76977e-18 0.0461623)
(5.10698e-20 1.71188e-18 0.014786)
(-1.23543e-17 -2.87189e-17 0.746911)
(-2.15911e-17 -5.73736e-18 0.737658)
(-2.05252e-17 -4.66536e-18 0.72771)
(-2.07548e-17 -2.46913e-17 0.717106)
(-1.60412e-17 -1.22948e-17 0.705873)
(3.98077e-18 -5.70606e-18 0.694026)
(1.93637e-17 1.23052e-17 0.681566)
(2.03334e-17 1.63608e-17 0.668479)
(1.51042e-17 8.78886e-18 0.654735)
(8.46316e-18 5.90417e-18 0.640285)
(-3.24509e-19 6.81576e-18 0.62506)
(-9.8657e-18 6.19284e-18 0.608966)
(-1.46993e-17 4.73856e-18 0.59188)
(-9.39145e-18 3.49117e-18 0.573641)
(-1.0532e-17 3.75066e-18 0.554045)
(-1.07731e-17 4.38641e-18 0.532828)
(-9.39383e-18 4.95644e-18 0.509655)
(-7.19537e-18 5.75542e-18 0.484096)
(-2.50174e-18 6.26217e-18 0.4556)
(-5.9864e-18 6.32477e-18 0.423477)
(-1.07577e-17 6.3254e-18 0.386927)
(-1.05002e-17 6.36533e-18 0.345348)
(-7.76757e-18 6.38195e-18 0.299257)
(-6.22927e-18 6.33876e-18 0.25152)
(-5.22632e-18 5.97838e-18 0.204948)
(-2.97443e-18 5.26547e-18 0.160584)
(-1.25046e-18 4.17608e-18 0.119102)
(-4.52552e-19 2.7739e-18 0.080911)
(1.92778e-19 1.26882e-18 0.0461623)
(-1.1515e-19 7.46578e-19 0.014786)
(7.02411e-19 -3.14215e-17 0.746528)
(-9.70837e-18 -2.07494e-17 0.73725)
(-1.9025e-17 -5.9142e-18 0.727278)
(-8.49107e-18 -1.2859e-17 0.716652)
(7.39111e-18 -5.04879e-19 0.705398)
(2.15346e-17 9.49059e-18 0.69353)
(2.40067e-17 1.43244e-17 0.681049)
(-3.6106e-18 1.13508e-17 0.667942)
(-1.5029e-17 6.01215e-18 0.654176)
(-3.52925e-18 3.14579e-19 0.639704)
(-3.5984e-18 -4.73098e-18 0.624455)
(-1.47109e-17 -1.0088e-17 0.608336)
(-1.75821e-17 -1.29356e-17 0.591221)
(-8.92854e-19 -1.33404e-17 0.57295)
(9.93646e-18 -1.42353e-17 0.553317)
(9.28856e-18 -1.42534e-17 0.532059)
(8.97595e-18 -1.4652e-17 0.508839)
(5.81293e-18 -1.49238e-17 0.483226)
(2.6462e-18 -1.5524e-17 0.454668)
(1.17241e-18 -1.57698e-17 0.422477)
(-1.25127e-20 -1.52942e-17 0.385858)
(-7.76996e-19 -1.44659e-17 0.34423)
(6.36967e-19 -1.30849e-17 0.298167)
(1.9687e-18 -1.1287e-17 0.250544)
(1.338e-18 -9.53424e-18 0.204115)
(7.39544e-19 -7.73444e-18 0.15991)
(1.93148e-19 -6.0079e-18 0.11859)
(2.21072e-19 -4.25396e-18 0.0805591)
(-3.99596e-20 -2.44485e-18 0.0459605)
(1.73498e-19 -9.66384e-19 0.0147212)
(6.94043e-18 -4.44534e-18 0.74576)
(1.40969e-17 5.36235e-18 0.736431)
(-6.52259e-18 -3.49814e-18 0.726412)
(-8.86649e-18 1.06446e-17 0.715741)
(2.01706e-17 2.37898e-17 0.704444)
(2.63569e-17 2.42003e-17 0.692536)
(2.09167e-17 1.49515e-17 0.680014)
(-7.65419e-19 2.34245e-18 0.666865)
(-2.56367e-17 -4.50515e-18 0.653057)
(-3.35566e-17 -8.27159e-18 0.63854)
(-3.3325e-17 -1.11338e-17 0.623244)
(-3.33525e-17 -1.23883e-17 0.607072)
(-3.20703e-17 -1.17135e-17 0.589899)
(-2.76582e-17 -9.60615e-18 0.571564)
(-1.62495e-17 -7.43244e-18 0.551858)
(-9.14997e-18 -6.72245e-18 0.530517)
(-9.42662e-18 -6.63522e-18 0.507201)
(-9.10326e-18 -5.77053e-18 0.481479)
(-8.085e-18 -4.58416e-18 0.452797)
(-5.52651e-18 -3.0697e-18 0.420468)
(-6.09299e-18 -1.80638e-18 0.383709)
(-6.92727e-18 -7.6875e-20 0.341984)
(-3.95773e-18 2.35085e-18 0.295983)
(-2.36113e-18 3.96803e-18 0.248589)
(-2.24455e-18 4.68909e-18 0.202448)
(-2.04116e-18 4.98558e-18 0.15856)
(-1.96568e-18 4.84877e-18 0.117568)
(-1.51397e-18 4.42344e-18 0.0798559)
(-6.51623e-19 3.755e-18 0.0455572)
(-2.53406e-19 8.93071e-19 0.0145919)
(1.08805e-17 -3.81076e-18 0.744598)
(-9.39622e-18 -1.6001e-17 0.735194)
(2.5333e-18 -3.18944e-17 0.725105)
(2.83605e-17 2.7922e-19 0.714368)
(1.86992e-17 3.97673e-18 0.703008)
(1.09456e-18 -3.21244e-18 0.691038)
(-1.15537e-17 -8.42466e-18 0.678456)
(-1.76526e-17 -1.37633e-17 0.665245)
(-5.54253e-18 -1.59736e-17 0.651374)
(9.68992e-18 -1.69224e-17 0.63679)
(1.66627e-17 -1.80317e-17 0.621422)
(1.88658e-17 -1.87718e-17 0.605172)