/*--------------------------------*- C++ -*----------------------------------*\
| =========                 |                                                 |
| \\      /  F ield         | OpenFOAM: The Open Source CFD Toolbox           |
|  \\    /   O peration     | Version:  2306                                  |
|   \\  /    A nd           | Website:  www.openfoam.com                      |
|    \\/     M anipulation  |                                                 |
\*---------------------------------------------------------------------------*/
FoamFile
{
    version     2.0;
    format      ascii;
    arch        "LSB;label=32;scalar=64";
    class       volScalarField;
    location    "12336";
    object      zeta;
}
// * * * * * * * * * * * * * * * * * * * * * * * * * * * * * * * * * * * * * //

dimensions      [0 0 0 0 0 0 0];

internalField   nonuniform List<scalar> 
2800
(
0.491121
0.510605
0.528726
0.545088
0.559466
0.571692
0.58163
0.589176
0.594251
0.596801
0.596801
0.594251
0.589176
0.58163
0.571692
0.559466
0.545088
0.528726
0.510605
0.491121
0.510698
0.536028
0.559002
0.579656
0.597836
0.61334
0.62598
0.6356
0.64208
0.64534
0.64534
0.64208
0.6356
0.62598
0.61334
0.597836
0.579656
0.559002
0.536028
0.510698
0.528843
0.559055
0.586688
0.611545
0.633426
0.6521
0.667339
0.678948
0.686774
0.690713
0.690713
0.686774
0.678948
0.667339
0.6521
0.633426
0.611545
0.586688
0.559055
0.528844
0.54521
0.579734
0.61158
0.640344
0.6657
0.687351
0.705026
0.718493
0.727572
0.732142
0.732142
0.727572
0.718493
0.705026
0.687351
0.6657
0.640344
0.61158
0.579734
0.54521
0.559582
0.597923
0.63348
0.665724
0.694207
0.718549
0.738425
0.753568
0.763776
0.768914
0.768914
0.763776
0.753568
0.738425
0.718549
0.694207
0.665724
0.63348
0.597923
0.559582
0.571797
0.613427
0.652163
0.68739
0.718567
0.745234
0.767013
0.783605
0.794787
0.800414
0.800414
0.794787
0.783605
0.767013
0.745234
0.718567
0.68739
0.652163
0.613427
0.571797
0.581724
0.626063
0.667405
0.705073
0.738454
0.767026
0.790365
0.808144
0.820123
0.82615
0.82615
0.820123
0.808144
0.790365
0.767026
0.738454
0.705073
0.667405
0.626063
0.581724
0.589259
0.635677
0.679014
0.718544
0.753604
0.783626
0.808153
0.826833
0.839418
0.845748
0.845748
0.839418
0.826833
0.808153
0.783626
0.753604
0.718544
0.679014
0.635678
0.589259
0.594326
0.642153
0.686839
0.727625
0.763816
0.794813
0.820138
0.839424
0.852414
0.858949
0.858949
0.852414
0.839424
0.820138
0.794813
0.763816
0.727625
0.686839
0.642153
0.594326
0.596872
0.64541
0.690777
0.732196
0.768955
0.800443
0.826167
0.845757
0.858952
0.865588
0.865588
0.858952
0.845757
0.826167
0.800443
0.768955
0.732196
0.690777
0.64541
0.596872
0.596872
0.64541
0.690777
0.732196
0.768955
0.800443
0.826167
0.845757
0.858952
0.865588
0.865588
0.858952
0.845757
0.826167
0.800443
0.768955
0.732196
0.690777
0.64541
0.596872
0.594326
0.642153
0.686839
0.727625
0.763816
0.794813
0.820138
0.839424
0.852414
0.858949
0.858949
0.852414
0.839424
0.820138
0.794813
0.763816
0.727625
0.686839
0.642153
0.594326
0.589259
0.635678
0.679014
0.718544
0.753604
0.783626
0.808153
0.826833
0.839418
0.845748
0.845748
0.839418
0.826833
0.808153
0.783626
0.753604
0.718544
0.679014
0.635678
0.589259
0.581724
0.626063
0.667405
0.705073
0.738454
0.767026
0.790365
0.808144
0.820123
0.82615
0.82615
0.820123
0.808144
0.790366
0.767026
0.738454
0.705073
0.667405
0.626063
0.581724
0.571797
0.613427
0.652163
0.68739
0.718567
0.745234
0.767013
0.783605
0.794787
0.800414
0.800414
0.794787
0.783605
0.767013
0.745234
0.718567
0.68739
0.652163
0.613427
0.571797
0.559582
0.597923
0.63348
0.665724
0.694207
0.718549
0.738425
0.753568
0.763776
0.768914
0.768914
0.763776
0.753568
0.738425
0.718549
0.694207
0.665724
0.63348
0.597923
0.559582
0.54521
0.579734
0.61158
0.640344
0.6657
0.687351
0.705026
0.718493
0.727572
0.732142
0.732142
0.727572
0.718493
0.705026
0.687351
0.6657
0.640344
0.61158
0.579734
0.54521
0.528844
0.559055
0.586688
0.611545
0.633426
0.6521
0.667339
0.678948
0.686774
0.690713
0.690713
0.686774
0.678948
0.667339
0.6521
0.633426
0.611545
0.586688
0.559055
0.528844
0.510698
0.536028
0.559002
0.579656
0.597836
0.61334
0.62598
0.6356
0.64208
0.64534
0.64534
0.64208
0.6356
0.62598
0.61334
0.597836
0.579656
0.559002
0.536028
0.510698
0.491121
0.510605
0.528726
0.545088
0.559466
0.571692
0.58163
0.589176
0.594251
0.596801
0.596801
0.594251
0.589176
0.58163
0.571692
0.559467
0.545088
0.528726
0.510605
0.491121
0.460163
0.420714
0.383989
0.349979
0.318531
0.289429
0.262448
0.237375
0.214016
0.192209
0.171818
0.152736
0.134885
0.118212
0.10269
0.0883196
0.075123
0.0631444
0.05244
0.0430555
0.0349699
0.0280226
0.0219996
0.0167929
0.0122238
0.00825589
0.00496207
0.00245424
0.000814646
6.09578e-05
0.477162
0.436166
0.39814
0.362963
0.330455
0.300393
0.272544
0.246683
0.222607
0.20014
0.179137
0.159479
0.141078
0.12387
0.107823
0.0929286
0.0792045
0.0666933
0.0554553
0.0455507
0.0369908
0.0296531
0.0232785
0.0178026
0.0130087
0.00883136
0.0053378
0.00265417
0.000885137
6.65264e-05
0.492229
0.450073
0.410905
0.374668
0.34119
0.310248
0.281602
0.25502
0.230288
0.207222
0.185664
0.165487
0.146593
0.128914
0.112406
0.0970573
0.0828791
0.0699104
0.0582113
0.0478487
0.0388569
0.0311528
0.0244921
0.0187579
0.01375
0.00937633
0.00569563
0.00284578
0.000953066
7.19176e-05
0.505641
0.462451
0.422274
0.38509
0.35074
0.319005
0.289642
0.262412
0.237094
0.213493
0.191443
0.170809
0.151485
0.133393
0.116486
0.100743
0.086171
0.0728045
0.0607024
0.0499364
0.0405579
0.0325176
0.0255921
0.0196186
0.0144172
0.00986899
0.00602147
0.00302164
0.00101584
7.69288e-05
0.51734
0.473243
0.432187
0.394173
0.359059
0.326629
0.296637
0.268841
0.24301
0.218943
0.196466
0.175435
0.155739
0.137292
0.12004
0.103956
0.0890446
0.0753352
0.0628859
0.0517715
0.0420561
0.0337179
0.026556
0.0203688
0.0149985
0.0102998
0.00630837
0.00317764
0.00107188
8.14279e-05
0.527239
0.482377
0.440577
0.401861
0.366098
0.333076
0.302551
0.274273
0.248007
0.223546
0.200707
0.179341
0.15933
0.140582
0.123039
0.10667
0.0914724
0.0774755
0.0647352
0.0533286
0.0433292
0.0347367
0.0273717
0.021001
0.0154879
0.0106638
0.00655218
0.00331107
0.0011201
8.53177e-05
0.53526
0.489783
0.447381
0.408095
0.371804
0.338302
0.307343
0.278673
0.252054
0.227272
0.204139
0.182501
0.162234
0.143243
0.125464
0.108863
0.093435
0.0792064
0.0662321
0.0545907
0.0443624
0.035563
0.0280316
0.0215106
0.0158822
0.0109578
0.00675007
0.00341997
0.00115964
8.8521e-05
0.541337
0.495397
0.45254
0.412822
0.376132
0.342265
0.310975
0.282008
0.25512
0.230094
0.206737
0.184892
0.16443
0.145254
0.127296
0.11052
0.0949184
0.080515
0.0673645
0.0555463
0.0451452
0.0361888
0.0285305
0.0218948
0.0161792
0.0111797
0.00690004
0.00350286
0.00118986
9.09768e-05
0.545417
0.499169
0.456008
0.416
0.37904
0.344927
0.313415
0.284248
0.25718
0.231989
0.208482
0.186497
0.165904
0.146603
0.128525
0.111631
0.0959125
0.0813922
0.0681238
0.0561874
0.0456708
0.0366087
0.0288649
0.0221518
0.0163778
0.0113283
0.00700072
0.00355869
0.00121027
9.26393e-05
0.547466
0.501064
0.45775
0.417596
0.380502
0.346265
0.314642
0.285373
0.258214
0.23294
0.209357
0.187302
0.166643
0.14728
0.129141
0.112188
0.0964111
0.0818321
0.0685048
0.0565092
0.0459346
0.0368195
0.0290326
0.0222805
0.0164772
0.0114028
0.00705127
0.00358677
0.00122055
9.34783e-05
0.547466
0.501064
0.45775
0.417596
0.380502
0.346265
0.314642
0.285373
0.258214
0.23294
0.209357
0.187302
0.166643
0.14728
0.129141
0.112188
0.0964111
0.0818321
0.0685048
0.0565092
0.0459346
0.0368195
0.0290326
0.0222805
0.0164772
0.0114028
0.00705127
0.00358677
0.00122055
9.34783e-05
0.545417
0.499169
0.456008
0.416
0.37904
0.344927
0.313415
0.284248
0.25718
0.231989
0.208482
0.186497
0.165904
0.146603
0.128525
0.111631
0.0959125
0.0813922
0.0681238
0.0561874
0.0456708
0.0366087
0.0288649
0.0221518
0.0163778
0.0113283
0.00700072
0.00355869
0.00121027
9.26393e-05
0.541337
0.495397
0.45254
0.412822
0.376132
0.342265
0.310975
0.282008
0.25512
0.230094
0.206737
0.184892
0.16443
0.145254
0.127296
0.11052
0.0949184
0.080515
0.0673645
0.0555463
0.0451452
0.0361888
0.0285305
0.0218948
0.0161792
0.0111797
0.00690004
0.00350286
0.00118986
9.09768e-05
0.53526
0.489783
0.447381
0.408095
0.371805
0.338302
0.307343
0.278673
0.252054
0.227272
0.204139
0.182501
0.162234
0.143243
0.125464
0.108863
0.093435
0.0792064
0.0662321
0.0545907
0.0443624
0.035563
0.0280316
0.0215106
0.0158822
0.0109578
0.00675007
0.00341997
0.00115964
8.8521e-05
0.527239
0.482377
0.440577
0.401861
0.366098
0.333076
0.302551
0.274273
0.248007
0.223546
0.200707
0.179341
0.15933
0.140582
0.123039
0.10667
0.0914724
0.0774755
0.0647352
0.0533286
0.0433292
0.0347367
0.0273717
0.021001
0.0154879
0.0106638
0.00655218
0.00331107
0.0011201
8.53177e-05
0.51734
0.473243
0.432187
0.394173
0.359059
0.326629
0.296637
0.268841
0.24301
0.218943
0.196466
0.175435
0.155739
0.137292
0.12004
0.103956
0.0890446
0.0753353
0.0628859
0.0517715
0.0420561
0.0337179
0.026556
0.0203688
0.0149985
0.0102998
0.00630837
0.00317764
0.00107188
8.14279e-05
0.505641
0.462451
0.422274
0.38509
0.35074
0.319005
0.289642
0.262412
0.237094
0.213493
0.191443
0.170809
0.151485
0.133393
0.116486
0.100743
0.086171
0.0728045
0.0607024
0.0499364
0.0405579
0.0325176
0.0255921
0.0196186
0.0144172
0.00986899
0.00602147
0.00302164
0.00101584
7.69288e-05
0.492229
0.450073
0.410905
0.374668
0.34119
0.310248
0.281602
0.25502
0.230288
0.207222
0.185664
0.165487
0.146593
0.128914
0.112406
0.0970573
0.0828791
0.0699104
0.0582113
0.0478487
0.0388569
0.0311528
0.0244921
0.0187579
0.01375
0.00937633
0.00569563
0.00284578
0.000953066
7.19176e-05
0.477162
0.436166
0.39814
0.362963
0.330455
0.300393
0.272544
0.246683
0.222607
0.200141
0.179137
0.159479
0.141078
0.12387
0.107823
0.0929286
0.0792045
0.0666933
0.0554553
0.0455507
0.0369908
0.0296531
0.0232785
0.0178026
0.0130087
0.00883136
0.0053378
0.00265417
0.000885137
6.65264e-05
0.460163
0.420714
0.383989
0.349979
0.318531
0.289429
0.262448
0.237375
0.214016
0.192209
0.171818
0.152736
0.134885
0.118212
0.10269
0.0883196
0.075123
0.0631444
0.05244
0.0430555
0.0349699
0.0280226
0.0219996
0.0167929
0.0122238
0.00825589
0.00496207
0.00245424
0.000814646
6.09578e-05
0.459962
0.420564
0.383858
0.349861
0.318423
0.289333
0.262366
0.237306
0.213962
0.192168
0.17179
0.15272
0.134879
0.118214
0.1027
0.0883344
0.075141
0.0631638
0.0524593
0.0430732
0.0349854
0.0280359
0.0220107
0.0168022
0.0122316
0.00826195
0.0049663
0.00245663
0.000815533
6.10307e-05
0.477043
0.436052
0.398039
0.362873
0.330374
0.300321
0.272479
0.246625
0.222556
0.200095
0.179096
0.159442
0.141043
0.123838
0.107792
0.0928993
0.0791769
0.0666678
0.0554324
0.0455308
0.0369743
0.0296396
0.0232674
0.0177939
0.0130019
0.00882636
0.00533452
0.00265241
0.000884502
6.64728e-05
0.492105
0.44996
0.410805
0.374577
0.341106
0.31017
0.281529
0.25495
0.230222
0.207158
0.185602
0.165427
0.146536
0.128859
0.112354
0.0970083
0.0828338
0.0698694
0.0581752
0.047818
0.0388316
0.0311324
0.0244756
0.0187449
0.0137399
0.00936885
0.00569067
0.0028431
0.000952097
7.18373e-05
0.505517
0.462339
0.422175
0.384999
0.350656
0.318925
0.289566
0.262339
0.237023
0.213424
0.191376
0.170744
0.151423
0.133334
0.116431
0.100691
0.0861232
0.0727615
0.0606647
0.0499044
0.0405316
0.0324964
0.025575
0.0196052
0.0144068
0.00986122
0.00601627
0.0030188
0.00101481
7.68434e-05
0.517221
0.473137
0.432092
0.394088
0.35898
0.326554
0.296566
0.268772
0.242943
0.218879
0.196404
0.175376
0.155681
0.137237
0.119989
0.103909
0.0890014
0.0752965
0.062852
0.0517426
0.0420323
0.0336987
0.0265406
0.0203568
0.0149891
0.0102928
0.00630365
0.00317504
0.00107094
8.1349e-05
0.527129
0.48228
0.440492
0.401785
0.366029
0.333012
0.30249
0.274214
0.247951
0.223492
0.200655
0.179292
0.159283
0.140538
0.122998
0.106631
0.0914373
0.0774439
0.0647075
0.053305
0.0433097
0.0347211
0.0273591
0.0209913
0.0154803
0.0106581
0.00654832
0.00330893
0.00111932
8.52519e-05
0.535161
0.489697
0.447307
0.408031
0.371748
0.338251
0.307295
0.278628
0.252012
0.227231
0.2041
0.182464
0.162199
0.143209
0.125433
0.108834
0.0934089
0.0791829
0.0662114
0.054573
0.0443477
0.0355512
0.0280222
0.0215034
0.0158765
0.0109535
0.00674718
0.00341836
0.00115905
8.84708e-05
0.541246
0.495322
0.452478
0.41277
0.376087
0.342225
0.310939
0.281975
0.25509
0.230065
0.206711
0.184867
0.164406
0.145231
0.127275
0.110501
0.0949004
0.0804988
0.0673502
0.0555341
0.0451351
0.0361806
0.028524
0.0218898
0.0161753
0.0111768
0.00689804
0.00350175
0.00118945
9.09413e-05
0.545334
0.499102
0.455954
0.415957
0.379005
0.344898
0.31339
0.284225
0.257159
0.23197
0.208464
0.18648
0.165888
0.146588
0.128511
0.111618
0.0959006
0.0813815
0.0681143
0.0561793
0.045664
0.0366033
0.0288606
0.0221485
0.0163752
0.0113264
0.00699941
0.00355795
0.00120999
9.26152e-05
0.547386
0.501001
0.457702
0.417559
0.380472
0.346242
0.314622
0.285356
0.258199
0.232926
0.209345
0.18729
0.166632
0.147269
0.129131
0.112179
0.0964025
0.0818244
0.0684978
0.0565032
0.0459296
0.0368155
0.0290294
0.0222781
0.0164754
0.0114014
0.00705032
0.00358623
0.00122035
9.34603e-05
0.547386
0.501001
0.457702
0.417559
0.380472
0.346242
0.314622
0.285356
0.258199
0.232926
0.209345
0.18729
0.166632
0.147269
0.129131
0.112179
0.0964025
0.0818244
0.0684978
0.0565032
0.0459296
0.0368155
0.0290294
0.0222781
0.0164754
0.0114014
0.00705032
0.00358623
0.00122035
9.34603e-05
0.545334
0.499102
0.455954
0.415957
0.379005
0.344898
0.31339
0.284225
0.257159
0.23197
0.208464
0.18648
0.165888
0.146588
0.128511
0.111618
0.0959006
0.0813815
0.0681143
0.0561793
0.045664
0.0366033
0.0288606
0.0221485
0.0163752
0.0113264
0.00699941
0.00355795
0.00120999
9.26152e-05
0.541246
0.495322
0.452478
0.41277
0.376087
0.342225
0.310939
0.281975
0.25509
0.230065
0.206711
0.184867
0.164406
0.145231
0.127275
0.110501
0.0949004
0.0804988
0.0673502
0.0555341
0.0451351
0.0361806
0.028524
0.0218898
0.0161753
0.0111768
0.00689804
0.00350175
0.00118945
9.09413e-05
0.535161
0.489697
0.447307
0.408031
0.371748
0.338251
0.307295
0.278628
0.252012
0.227231
0.2041
0.182464
0.162199
0.143209
0.125433
0.108834
0.0934089
0.0791829
0.0662114
0.054573
0.0443477
0.0355512
0.0280222
0.0215034
0.0158765
0.0109535
0.00674718
0.00341836
0.00115905
8.84708e-05
0.527129
0.48228
0.440492
0.401785
0.366029
0.333012
0.30249
0.274214
0.247951
0.223492
0.200655
0.179292
0.159283
0.140538
0.122998
0.106631
0.0914373
0.0774439
0.0647075
0.053305
0.0433097
0.034721
0.0273591
0.0209913
0.0154803
0.0106581
0.00654832
0.00330893
0.00111932
8.52519e-05
0.517221
0.473137
0.432092
0.394088
0.35898
0.326554
0.296566
0.268772
0.242943
0.218879
0.196404
0.175376
0.155681
0.137237
0.119989
0.103909
0.0890014
0.0752965
0.062852
0.0517426
0.0420323
0.0336987
0.0265406
0.0203568
0.0149891
0.0102928
0.00630365
0.00317504
0.00107094
8.1349e-05
0.505517
0.462339
0.422175
0.384999
0.350656
0.318925
0.289566
0.262339
0.237023
0.213424
0.191376
0.170744
0.151423
0.133334
0.116431
0.100691
0.0861232
0.0727615
0.0606647
0.0499044
0.0405316
0.0324964
0.025575
0.0196052
0.0144068
0.00986122
0.00601627
0.0030188
0.00101481
7.68434e-05
0.492105
0.44996
0.410805
0.374577
0.341106
0.31017
0.281529
0.25495
0.230222
0.207158
0.185602
0.165427
0.146536
0.128859
0.112354
0.0970083
0.0828338
0.0698694
0.0581752
0.047818
0.0388316
0.0311324
0.0244756
0.0187449
0.0137399
0.00936885
0.00569067
0.0028431
0.000952097
7.18373e-05
0.477043
0.436052
0.398039
0.362873
0.330374
0.300321
0.272479
0.246625
0.222556
0.200095
0.179096
0.159442
0.141043
0.123838
0.107792
0.0928993
0.0791769
0.0666678
0.0554324
0.0455308
0.0369742
0.0296396
0.0232674
0.0177939
0.0130019
0.00882636
0.00533452
0.00265241
0.000884502
6.64728e-05
0.459962
0.420564
0.383858
0.349861
0.318423
0.289333
0.262366
0.237306
0.213962
0.192168
0.17179
0.15272
0.134879
0.118214
0.1027
0.0883344
0.075141
0.0631638
0.0524593
0.0430732
0.0349854
0.0280359
0.0220107
0.0168022
0.0122316
0.00826195
0.0049663
0.00245663
0.000815532
6.10307e-05
0.460163
0.420714
0.383989
0.349979
0.318531
0.289429
0.262448
0.237375
0.214016
0.192209
0.171818
0.152736
0.134885
0.118212
0.10269
0.0883196
0.075123
0.0631444
0.05244
0.0430555
0.0349699
0.0280226
0.0219996
0.0167929
0.0122238
0.00825589
0.00496207
0.00245424
0.000814646
6.09578e-05
0.477162
0.436166
0.39814
0.362963
0.330455
0.300393
0.272544
0.246683
0.222607
0.200141
0.179137
0.159479
0.141078
0.12387
0.107823
0.0929286
0.0792045
0.0666933
0.0554553
0.0455507
0.0369908
0.0296531
0.0232785
0.0178026
0.0130087
0.00883136
0.0053378
0.00265417
0.000885137
6.65264e-05
0.492229
0.450073
0.410905
0.374668
0.34119
0.310248
0.281602
0.25502
0.230288
0.207222
0.185664
0.165487
0.146593
0.128914
0.112406
0.0970573
0.0828791
0.0699104
0.0582113
0.0478487
0.0388569
0.0311528
0.0244921
0.0187579
0.01375
0.00937633
0.00569563
0.00284578
0.000953066
7.19176e-05
0.505641
0.462451
0.422274
0.38509
0.35074
0.319005
0.289642
0.262412
0.237094
0.213493
0.191443
0.170809
0.151485
0.133393
0.116486
0.100743
0.086171
0.0728045
0.0607024
0.0499364
0.0405579
0.0325176
0.0255921
0.0196186
0.0144172
0.00986899
0.00602147
0.00302164
0.00101584
7.69288e-05
0.51734
0.473243
0.432187
0.394173
0.359059
0.326629
0.296637
0.268841
0.24301
0.218943
0.196466
0.175435
0.155739
0.137292
0.12004
0.103956
0.0890446
0.0753352
0.0628859
0.0517715
0.0420561
0.0337179
0.026556
0.0203688
0.0149985
0.0102998
0.00630837
0.00317764
0.00107188
8.14279e-05
0.527239
0.482377
0.440577
0.401861
0.366098
0.333076
0.302551
0.274273
0.248007
0.223546
0.200707
0.179341
0.15933
0.140582
0.123039
0.10667
0.0914724
0.0774755
0.0647352
0.0533286
0.0433292
0.0347367
0.0273717
0.021001
0.0154879
0.0106638
0.00655218
0.00331107
0.0011201
8.53177e-05
0.53526
0.489783
0.447381
0.408095
0.371804
0.338302
0.307343
0.278673
0.252054
0.227272
0.204139
0.182501
0.162234
0.143243
0.125464
0.108863
0.093435
0.0792064
0.0662321
0.0545907
0.0443624
0.035563
0.0280316
0.0215106
0.0158822
0.0109578
0.00675007
0.00341997
0.00115964
8.8521e-05
0.541337
0.495397
0.45254
0.412822
0.376132
0.342264
0.310975
0.282008
0.25512
0.230094
0.206737
0.184892
0.16443
0.145254
0.127296
0.11052
0.0949183
0.080515
0.0673645
0.0555463
0.0451452
0.0361888
0.0285305
0.0218948
0.0161792
0.0111797
0.00690004
0.00350286
0.00118986
9.09768e-05
0.545417
0.499169
0.456008
0.416
0.37904
0.344927
0.313415
0.284248
0.25718
0.231989
0.208482
0.186497
0.165904
0.146603
0.128525
0.111631
0.0959125
0.0813922
0.0681238
0.0561874
0.0456708
0.0366087
0.0288649
0.0221518
0.0163778
0.0113283
0.00700072
0.00355869
0.00121027
9.26393e-05
0.547466
0.501064
0.45775
0.417596
0.380502
0.346265
0.314642
0.285373
0.258214
0.23294
0.209357
0.187302
0.166643
0.14728
0.129141
0.112188
0.0964111
0.0818321
0.0685048
0.0565092
0.0459346
0.0368195
0.0290326
0.0222805
0.0164772
0.0114028
0.00705127
0.00358677
0.00122055
9.34783e-05
0.547466
0.501064
0.45775
0.417596
0.380502
0.346265
0.314642
0.285373
0.258214
0.23294
0.209357
0.187302
0.166643
0.14728
0.129141
0.112188
0.0964111
0.0818321
0.0685048
0.0565092
0.0459346
0.0368195
0.0290326
0.0222805
0.0164772
0.0114028
0.00705127
0.00358677
0.00122055
9.34783e-05
0.545417
0.499169
0.456008
0.416
0.37904
0.344927
0.313415
0.284248
0.25718
0.231989
0.208482
0.186497
0.165904
0.146603
0.128525
0.111631
0.0959125
0.0813922
0.0681238
0.0561874
0.0456708
0.0366087
0.0288649
0.0221518
0.0163778
0.0113283
0.00700072
0.00355869
0.00121027
9.26393e-05
0.541337
0.495397
0.45254
0.412822
0.376132
0.342264
0.310975
0.282008
0.25512
0.230094
0.206737
0.184892
0.16443
0.145254
0.127296
0.11052
0.0949183
0.080515
0.0673645
0.0555463
0.0451452
0.0361888
0.0285305
0.0218948
0.0161792
0.0111797
0.00690004
0.00350286
0.00118986
9.09768e-05
0.53526
0.489783
0.447381
0.408095
0.371804
0.338302
0.307343
0.278673
0.252054
0.227272
0.204139
0.182501
0.162234
0.143243
0.125464
0.108863
0.093435
0.0792064
0.0662321
0.0545907
0.0443624
0.035563
0.0280316
0.0215106
0.0158822
0.0109578
0.00675007
0.00341997
0.00115964
8.8521e-05
0.527239
0.482377
0.440577
0.401861
0.366098
0.333076
0.302551
0.274273
0.248007
0.223546
0.200707
0.179341
0.15933
0.140582
0.123039
0.10667
0.0914724
0.0774755
0.0647352
0.0533286
0.0433292
0.0347367
0.0273717
0.021001
0.0154879
0.0106638
0.00655218
0.00331107
0.0011201
8.53177e-05
0.51734
0.473243
0.432187
0.394173
0.359059
0.326629
0.296637
0.268841
0.24301
0.218943
0.196466
0.175435
0.155739
0.137292
0.12004
0.103956
0.0890446
0.0753352
0.0628859
0.0517715
0.0420561
0.0337179
0.026556
0.0203688
0.0149985
0.0102998
0.00630837
0.00317764
0.00107188
8.14279e-05
0.505641
0.462451
0.422274
0.38509
0.35074
0.319005
0.289642
0.262412
0.237094
0.213493
0.191443
0.170809
0.151485
0.133393
0.116486
0.100743
0.086171
0.0728045
0.0607024
0.0499364
0.0405579
0.0325176
0.0255921
0.0196186
0.0144172
0.00986899
0.00602147
0.00302164
0.00101584
7.69288e-05
0.492229
0.450073
0.410905
0.374668
0.34119
0.310248
0.281602
0.25502
0.230288
0.207222
0.185664
0.165487
0.146593
0.128914
0.112406
0.0970573
0.0828791
0.0699104
0.0582113
0.0478487
0.0388569
0.0311528
0.0244921
0.0187579
0.01375
0.00937633
0.00569563
0.00284578
0.000953066
7.19176e-05
0.477162
0.436165
0.39814
0.362963
0.330455
0.300393
0.272544
0.246683
0.222607
0.20014
0.179137
0.159479
0.141078
0.12387
0.107823
0.0929286
0.0792045
0.0666933
0.0554553
0.0455507
0.0369908
0.0296531
0.0232785
0.0178026
0.0130087
0.00883136
0.0053378
0.00265417
0.000885137
6.65264e-05
0.460163
0.420714
0.383989
0.349979
0.318531
0.289429
0.262448
0.237375
0.214016
0.192209
0.171818
0.152736
0.134885
0.118212
0.10269
0.0883196
0.075123
0.0631444
0.05244
0.0430555
0.0349699
0.0280226
0.0219996
0.0167929
0.0122238
0.00825589
0.00496207
0.00245424
0.000814646
6.09578e-05
0.459962
0.420564
0.383858
0.349861
0.318423
0.289333
0.262366
0.237306
0.213962
0.192168
0.17179
0.15272
0.134879
0.118214
0.1027
0.0883344
0.075141
0.0631638
0.0524593
0.0430732
0.0349854
0.0280359
0.0220107
0.0168022
0.0122316
0.00826195
0.0049663
0.00245663
0.000815532
6.10307e-05
0.477043
0.436052
0.398039
0.362873
0.330374
0.300321
0.272479
0.246625
0.222556
0.200095
0.179096
0.159442
0.141043
0.123838
0.107792
0.0928993
0.0791769
0.0666678
0.0554324
0.0455308
0.0369742
0.0296396
0.0232674
0.0177939
0.0130019
0.00882636
0.00533452
0.00265241
0.000884502
6.64728e-05
0.492105
0.44996
0.410805
0.374577
0.341106
0.31017
0.281529
0.25495
0.230222
0.207158
0.185602
0.165427
0.146536
0.128859
0.112354
0.0970083
0.0828338
0.0698694
0.0581752
0.047818
0.0388316
0.0311324
0.0244756
0.0187449
0.0137399
0.00936885
0.00569067
0.0028431
0.000952097
7.18373e-05
0.505517
0.462339
0.422175
0.384999
0.350656
0.318925
0.289566
0.262339
0.237023
0.213424
0.191376
0.170744
0.151423
0.133334
0.116431
0.100691
0.0861232
0.0727615
0.0606647
0.0499044
0.0405316
0.0324964
0.025575
0.0196052
0.0144068
0.00986122
0.00601627
0.0030188
0.00101481
7.68434e-05
0.517221
0.473137
0.432092
0.394088
0.35898
0.326554
0.296566
0.268772
0.242943
0.218879
0.196404
0.175376
0.155681
0.137237
0.119989
0.103909
0.0890014
0.0752965
0.062852
0.0517426
0.0420323
0.0336987
0.0265406
0.0203568
0.0149891
0.0102928
0.00630365
0.00317504
0.00107094
8.1349e-05
0.527129
0.48228
0.440492
0.401785
0.366029
0.333012
0.30249
0.274214
0.247951
0.223492
0.200655
0.179292
0.159283
0.140538
0.122998
0.106631
0.0914373
0.0774439
0.0647075
0.053305
0.0433097
0.034721
0.0273591
0.0209913
0.0154803
0.0106581
0.00654832
0.00330893
0.00111932
8.52519e-05
0.535161
0.489697
0.447307
0.408031
0.371748
0.338251
0.307295
0.278628
0.252012
0.227231
0.2041
0.182464
0.162199
0.143209
0.125433
0.108834
0.0934089
0.0791829
0.0662114
0.054573
0.0443477
0.0355512
0.0280222
0.0215033
0.0158765
0.0109535
0.00674718
0.00341836
0.00115905
8.84708e-05
0.541246
0.495322
0.452478
0.41277
0.376087
0.342225
0.310939
0.281975
0.25509
0.230065
0.206711
0.184867
0.164406
0.145231
0.127275
0.110501
0.0949004
0.0804988
0.0673502
0.055534
0.0451351
0.0361806
0.028524
0.0218898
0.0161753
0.0111768
0.00689804
0.00350175
0.00118945
9.09413e-05
0.545333
0.499102
0.455954
0.415957
0.379005
0.344898
0.31339
0.284225
0.257159
0.23197
0.208464
0.18648
0.165888
0.146588
0.128511
0.111618
0.0959006
0.0813814
0.0681143
0.0561793
0.045664
0.0366033
0.0288606
0.0221485
0.0163752
0.0113264
0.00699941
0.00355795
0.00120999
9.26152e-05
0.547386
0.501001
0.457702
0.417559
0.380472
0.346242
0.314622
0.285356
0.258199
0.232926
0.209345
0.18729
0.166632
0.147269
0.129131
0.112179
0.0964025
0.0818244
0.0684978
0.0565032
0.0459296
0.0368155
0.0290294
0.0222781
0.0164754
0.0114014
0.00705032
0.00358623
0.00122035
9.34603e-05
0.547386
0.501001
0.457702
0.417559
0.380472
0.346242
0.314622
0.285356
0.258199
0.232926
0.209345
0.18729
0.166632
0.147269
0.129131
0.112179
0.0964025
0.0818244
0.0684978
0.0565032
0.0459296
0.0368155
0.0290294
0.0222781
0.0164754
0.0114014
0.00705032
0.00358623
0.00122035
9.34603e-05
0.545333
0.499102
0.455954
0.415957
0.379005
0.344898
0.31339
0.284225
0.257159
0.23197
0.208464
0.18648
0.165888
0.146588
0.128511
0.111618
0.0959006
0.0813814
0.0681143
0.0561793
0.045664
0.0366033
0.0288606
0.0221485
0.0163752
0.0113264
0.00699941
0.00355795
0.00120999
9.26152e-05
0.541246
0.495322
0.452478
0.41277
0.376087
0.342225
0.310939
0.281975
0.25509
0.230065
0.206711
0.184867
0.164406
0.145231
0.127275
0.110501
0.0949004
0.0804988
0.0673502
0.055534
0.0451351
0.0361806
0.028524
0.0218898
0.0161753
0.0111768
0.00689804
0.00350175
0.00118945
9.09413e-05
0.535161
0.489697
0.447307
0.408031
0.371748
0.338251
0.307295
0.278628
0.252012
0.227231
0.2041
0.182464
0.162199
0.143209
0.125433
0.108834
0.0934089
0.0791829
0.0662114
0.054573
0.0443477
0.0355512
0.0280222
0.0215033
0.0158765
0.0109535
0.00674718
0.00341836
0.00115905
8.84708e-05
0.527129
0.48228
0.440492
0.401785
0.366029
0.333012
0.30249
0.274214
0.247951
0.223492
0.200655
0.179292
0.159283
0.140538
0.122998
0.106631
0.0914373
0.0774439
0.0647075
0.053305
0.0433097
0.034721
0.0273591
0.0209913
0.0154803
0.0106581
0.00654832
0.00330893
0.00111932
8.52519e-05
0.517221
0.473137
0.432092
0.394088
0.35898
0.326554
0.296566
0.268772
0.242943
0.218879
0.196404
0.175376
0.155681
0.137237
0.119989
0.103909
0.0890014
0.0752965
0.062852
0.0517426
0.0420323
0.0336987
0.0265406
0.0203568
0.0149891
0.0102928
0.00630365
0.00317504
0.00107094
8.1349e-05
0.505517
0.462339
0.422175
0.384999
0.350656
0.318925
0.289566
0.262339
0.237023
0.213424
0.191376
0.170744
0.151423
0.133334
0.116431
0.100691
0.0861232
0.0727615
0.0606647
0.0499044
0.0405316
0.0324964
0.025575
0.0196052
0.0144068
0.00986122
0.00601627
0.0030188
0.00101481
7.68434e-05
0.492105
0.44996
0.410805
0.374577
0.341106
0.31017
0.281529
0.25495
0.230222
0.207158
0.185602
0.165427
0.146536
0.128859
0.112354
0.0970083
0.0828338
0.0698694
0.0581752
0.047818
0.0388316
0.0311324
0.0244756
0.0187449
0.0137399
0.00936885
0.00569067
0.0028431
0.000952097
7.18373e-05
0.477043
0.436052
0.398039
0.362873
0.330374
0.300321
0.272479
0.246625
0.222556
0.200095
0.179096
0.159442
0.141043
0.123838
0.107792
0.0928993
0.0791769
0.0666678
0.0554324
0.0455308
0.0369742
0.0296396
0.0232674
0.0177939
0.0130019
0.00882636
0.00533452
0.00265241
0.000884502
6.64728e-05
0.459962
0.420564
0.383858
0.349861
0.318423
0.289333
0.262366
0.237306
0.213962
0.192168
0.17179
0.15272
0.134879
0.118214
0.1027
0.0883344
0.075141
0.0631638
0.0524593
0.0430732
0.0349854
0.0280359
0.0220107
0.0168022
0.0122316
0.00826195
0.0049663
0.00245663
0.000815532
6.10307e-05
)
;

boundaryField
{
    walls
    {
        type            fixedValue;
        value           uniform 1e-10;
    }
    inlet
    {
        type            cyclic;
    }
    outlet
    {
        type            cyclic;
    }
}


// ************************************************************************* //
